
                                 *****************
                                 * O   R   C   A *
                                 *****************

                                            #,                                       
                                            ###                                      
                                            ####                                     
                                            #####                                    
                                            ######                                   
                                           ########,                                 
                                     ,,################,,,,,                         
                               ,,#################################,,                 
                          ,,##########################################,,             
                       ,#########################################, ''#####,          
                    ,#############################################,,   '####,        
                  ,##################################################,,,,####,       
                ,###########''''           ''''###############################       
              ,#####''   ,,,,##########,,,,          '''####'''          '####       
            ,##' ,,,,###########################,,,                        '##       
           ' ,,###''''                  '''############,,,                           
         ,,##''                                '''############,,,,        ,,,,,,###''
      ,#''                                            '''#######################'''  
     '                                                          ''''####''''         
             ,#######,   #######,   ,#######,      ##                                
            ,#'     '#,  ##    ##  ,#'     '#,    #''#        ######   ,####,        
            ##       ##  ##   ,#'  ##            #'  '#       #        #'  '#        
            ##       ##  #######   ##           ,######,      #####,   #    #        
            '#,     ,#'  ##    ##  '#,     ,#' ,#      #,         ##   #,  ,#        
             '#######'   ##     ##  '#######'  #'      '#     #####' # '####'        



                  #######################################################
                  #                        -***-                        #
                  #          Department of theory and spectroscopy      #
                  #    Directorship and core code : Frank Neese         #
                  #        Max Planck Institute fuer Kohlenforschung    #
                  #                Kaiser Wilhelm Platz 1               #
                  #                 D-45470 Muelheim/Ruhr               #
                  #                      Germany                        #
                  #                                                     #
                  #                  All rights reserved                #
                  #                        -***-                        #
                  #######################################################


                         Program Version 5.0.3 -  RELEASE  -


 With contributions from (in alphabetic order):
   Daniel Aravena         : Magnetic Suceptibility
   Michael Atanasov       : Ab Initio Ligand Field Theory (pilot matlab implementation)
   Alexander A. Auer      : GIAO ZORA, VPT2 properties, NMR spectrum
   Ute Becker             : Parallelization
   Giovanni Bistoni       : ED, misc. LED, open-shell LED, HFLD
   Martin Brehm           : Molecular dynamics
   Dmytro Bykov           : SCF Hessian
   Vijay G. Chilkuri      : MRCI spin determinant printing, contributions to CSF-ICE
   Dipayan Datta          : RHF DLPNO-CCSD density
   Achintya Kumar Dutta   : EOM-CC, STEOM-CC
   Dmitry Ganyushin       : Spin-Orbit,Spin-Spin,Magnetic field MRCI
   Miquel Garcia          : C-PCM and meta-GGA Hessian, CC/C-PCM, Gaussian charge scheme
   Yang Guo               : DLPNO-NEVPT2, F12-NEVPT2, CIM, IAO-localization
   Andreas Hansen         : Spin unrestricted coupled pair/coupled cluster methods
   Benjamin Helmich-Paris : MC-RPA, TRAH-SCF, COSX integrals
   Lee Huntington         : MR-EOM, pCC
   Robert Izsak           : Overlap fitted RIJCOSX, COSX-SCS-MP3, EOM
   Marcus Kettner         : VPT2
   Christian Kollmar      : KDIIS, OOCD, Brueckner-CCSD(T), CCSD density, CASPT2, CASPT2-K
   Simone Kossmann        : Meta GGA functionals, TD-DFT gradient, OOMP2, MP2 Hessian
   Martin Krupicka        : Initial AUTO-CI
   Lucas Lang             : DCDCAS
   Marvin Lechner         : AUTO-CI (C++ implementation), FIC-MRCC
   Dagmar Lenk            : GEPOL surface, SMD
   Dimitrios Liakos       : Extrapolation schemes; Compound Job, initial MDCI parallelization
   Dimitrios Manganas     : Further ROCIS development; embedding schemes
   Dimitrios Pantazis     : SARC Basis sets
   Anastasios Papadopoulos: AUTO-CI, single reference methods and gradients
   Taras Petrenko         : DFT Hessian,TD-DFT gradient, ASA, ECA, R-Raman, ABS, FL, XAS/XES, NRVS
   Peter Pinski           : DLPNO-MP2, DLPNO-MP2 Gradient
   Christoph Reimann      : Effective Core Potentials
   Marius Retegan         : Local ZFS, SOC
   Christoph Riplinger    : Optimizer, TS searches, QM/MM, DLPNO-CCSD(T), (RO)-DLPNO pert. Triples
   Tobias Risthaus        : Range-separated hybrids, TD-DFT gradient, RPA, STAB
   Michael Roemelt        : Original ROCIS implementation
   Masaaki Saitow         : Open-shell DLPNO-CCSD energy and density
   Barbara Sandhoefer     : DKH picture change effects
   Avijit Sen             : IP-ROCIS
   Kantharuban Sivalingam : CASSCF convergence, NEVPT2, FIC-MRCI
   Bernardo de Souza      : ESD, SOC TD-DFT
   Georgi Stoychev        : AutoAux, RI-MP2 NMR, DLPNO-MP2 response
   Willem Van den Heuvel  : Paramagnetic NMR
   Boris Wezisla          : Elementary symmetry handling
   Frank Wennmohs         : Technical directorship


 We gratefully acknowledge several colleagues who have allowed us to
 interface, adapt or use parts of their codes:
   Stefan Grimme, W. Hujo, H. Kruse, P. Pracht,  : VdW corrections, initial TS optimization,
                  C. Bannwarth, S. Ehlert          DFT functionals, gCP, sTDA/sTD-DF
   Ed Valeev, F. Pavosevic, A. Kumar             : LibInt (2-el integral package), F12 methods
   Garnet Chan, S. Sharma, J. Yang, R. Olivares  : DMRG
   Ulf Ekstrom                                   : XCFun DFT Library
   Mihaly Kallay                                 : mrcc  (arbitrary order and MRCC methods)
   Jiri Pittner, Ondrej Demel                    : Mk-CCSD
   Frank Weinhold                                : gennbo (NPA and NBO analysis)
   Christopher J. Cramer and Donald G. Truhlar   : smd solvation model
   Lars Goerigk                                  : TD-DFT with DH, B97 family of functionals
   V. Asgeirsson, H. Jonsson                     : NEB implementation
   FAccTs GmbH                                   : IRC, NEB, NEB-TS, DLPNO-Multilevel, CI-OPT
                                                   MM, QMMM, 2- and 3-layer-ONIOM, Crystal-QMMM,
                                                   LR-CPCM, SF, NACMEs, symmetry and pop. for TD-DFT,
                                                   nearIR, NL-DFT gradient (VV10), updates on ESD,
                                                   ML-optimized integration grids
   S Lehtola, MJT Oliveira, MAL Marques          : LibXC Library
   Liviu Ungur et al                             : ANISO software


 Your calculation uses the libint2 library for the computation of 2-el integrals
 For citations please refer to: http://libint.valeyev.net

 Your ORCA version has been built with support for libXC version: 5.1.0
 For citations please refer to: https://tddft.org/programs/libxc/

 This ORCA versions uses:
   CBLAS   interface :  Fast vector & matrix operations
   LAPACKE interface :  Fast linear algebra routines
   SCALAPACK package :  Parallel linear algebra routines
   Shared memory     :  Shared parallel matrices


Your calculation utilizes the atom-pairwise dispersion correction
with the Becke-Johnson damping scheme (D3BJ)
Cite in your paper:
S.Grimme, S.Ehrlich, L.Goerigk, J Comput Chem, (2011), 32, 1456–1465 
S.Grimme, J.Antony, S.Ehrlich and H.Krieg, J.Chem.Phys., 132, (2010), 154104 
   

================================================================================

----- Orbital basis set information -----
Your calculation utilizes the basis: def2-SVP
   F. Weigend and R. Ahlrichs, Phys. Chem. Chem. Phys. 7, 3297 (2005).

----- AuxJ basis set information -----
Your calculation utilizes the auxiliary basis: def2/J
   F. Weigend, Phys. Chem. Chem. Phys. 8, 1057 (2006).

================================================================================
                                        WARNINGS
                       Please study these warnings very carefully!
================================================================================


WARNING: Geometry Optimization
  ===> : Switching off AutoStart
         For restart on a previous wavefunction, please use MOREAD

INFO   : the flag for use of the SHARK integral package has been found!

================================================================================
                                       INPUT FILE
================================================================================
NAME = diazo_c01.inp
|  1> ! b3lyp d3bj def2-svp Freq Opt tightscf cpcm(CH2Cl2)
|  2> %pal
|  3>     nprocs 1
|  4> end
|  5> %MaxCore 1000
|  6> %freq
|  7>     Temp    298.15
|  8> end
|  9> 
| 10> *xyz 0 1
| 11> C     0.934866  -0.645835  -0.118781
| 12> C    -0.312224   0.126756   0.008735
| 13> N     2.050909   0.031931  -0.221079
| 14> O    -1.377214  -0.695565  -0.080738
| 15> O    -0.366061   1.325005   0.170151
| 16> C    -2.653190  -0.072377   0.149355
| 17> N     3.044065   0.622028  -0.426136
| 18> H     0.900382  -1.718495  -0.224598
| 19> H    -3.386502  -0.863239   0.043969
| 20> H    -2.693616   0.355296   1.147760
| 21> H    -2.831051   0.712699  -0.581033
| 22> *
| 23> 
| 24> 
| 25> 
| 26> 
| 27>                          ****END OF INPUT****
================================================================================

                       *****************************
                       * Geometry Optimization Run *
                       *****************************

Geometry optimization settings:
Update method            Update   .... BFGS
Choice of coordinates    CoordSys .... Z-matrix Internals
Initial Hessian          InHess   .... Almoef's Model

Convergence Tolerances:
Energy Change            TolE     ....  5.0000e-06 Eh
Max. Gradient            TolMAXG  ....  3.0000e-04 Eh/bohr
RMS Gradient             TolRMSG  ....  1.0000e-04 Eh/bohr
Max. Displacement        TolMAXD  ....  4.0000e-03 bohr
RMS Displacement         TolRMSD  ....  2.0000e-03 bohr
Strict Convergence                ....  False
------------------------------------------------------------------------------
                        ORCA OPTIMIZATION COORDINATE SETUP
------------------------------------------------------------------------------

The optimization will be done in new redundant internal coordinates
Making redundant internal coordinates   ...  (new redundants) done
Evaluating the initial hessian          ...  (Almloef) done
Evaluating the coordinates              ...  done
Calculating the B-matrix                .... done
Calculating the G-matrix                .... done
Diagonalizing the G-matrix              .... done
The first mode is                       ....    8
The number of degrees of freedom        ....   27

    -----------------------------------------------------------------
                    Redundant Internal Coordinates


    -----------------------------------------------------------------
         Definition                    Initial Value    Approx d2E/dq
    -----------------------------------------------------------------
      1. B(C   1,C   0)                  1.4725         0.461362   
      2. B(N   2,C   0)                  1.3097         0.751531   
      3. B(O   3,C   1)                  1.3485         0.651785   
      4. B(O   4,C   1)                  1.2103         1.082986   
      5. B(C   5,O   3)                  1.4385         0.468188   
      6. B(N   6,N   2)                  1.1733         1.111095   
      7. B(H   7,C   0)                  1.0784         0.375752   
      8. B(H   8,C   5)                  1.0837         0.368588   
      9. B(H   9,C   5)                  1.0869         0.364225   
     10. B(H  10,C   5)                  1.0869         0.364167   
     11. A(C   1,C   0,H   7)          120.2171         0.338222   
     12. A(N   2,C   0,H   7)          122.2969         0.365032   
     13. A(C   1,C   0,N   2)          117.1880         0.423330   
     14. A(C   0,C   1,O   4)          124.6578         0.452153   
     15. A(C   0,C   1,O   3)          110.0694         0.412726   
     16. A(O   3,C   1,O   4)          125.2728         0.478463   
     17. A(C   0,N   2,N   6)          174.3876         0.490163   
     18. A(C   1,O   3,C   5)          115.1967         0.411131   
     19. A(H   9,C   5,H  10)          109.0847         0.291875   
     20. A(H   8,C   5,H  10)          110.5512         0.292423   
     21. A(O   3,C   5,H  10)          110.5214         0.335242   
     22. A(H   8,C   5,H   9)          110.5685         0.292430   
     23. A(O   3,C   5,H   9)          110.5102         0.335251   
     24. A(O   3,C   5,H   8)          105.5758         0.335916   
     25. D(O   4,C   1,C   0,N   2)     -8.3850         0.014499   
     26. D(O   3,C   1,C   0,H   7)     -2.2601         0.014499   
     27. D(O   3,C   1,C   0,N   2)    171.6149         0.014499   
     28. D(O   4,C   1,C   0,H   7)    177.7400         0.014499   
     29. D(N   6,N   2,C   0,H   7)     74.8727         0.042915   
     30. D(N   6,N   2,C   0,C   1)    -98.8653         0.042915   
     31. D(C   5,O   3,C   1,C   0)    174.6700         0.031411   
     32. D(C   5,O   3,C   1,O   4)     -5.3301         0.031411   
     33. D(H  10,C   5,O   3,C   1)     60.6101         0.017276   
     34. D(H   9,C   5,O   3,C   1)    -60.2387         0.017276   
     35. D(H   8,C   5,O   3,C   1)   -179.8216         0.017276   
    -----------------------------------------------------------------

Number of atoms                         .... 11
Number of degrees of freedom            .... 35

         *************************************************************
         *                GEOMETRY OPTIMIZATION CYCLE   1            *
         *************************************************************
---------------------------------
CARTESIAN COORDINATES (ANGSTROEM)
---------------------------------
  C      0.934866   -0.645835   -0.118781
  C     -0.312224    0.126756    0.008735
  N      2.050909    0.031931   -0.221079
  O     -1.377214   -0.695565   -0.080738
  O     -0.366061    1.325005    0.170151
  C     -2.653190   -0.072377    0.149355
  N      3.044065    0.622028   -0.426136
  H      0.900382   -1.718495   -0.224598
  H     -3.386502   -0.863239    0.043969
  H     -2.693616    0.355296    1.147760
  H     -2.831051    0.712699   -0.581033

----------------------------
CARTESIAN COORDINATES (A.U.)
----------------------------
  NO LB      ZA    FRAG     MASS         X           Y           Z
   0 C     6.0000    0    12.011    1.766641   -1.220451   -0.224464
   1 C     6.0000    0    12.011   -0.590018    0.239534    0.016507
   2 N     7.0000    0    14.007    3.875656    0.060341   -0.417779
   3 O     8.0000    0    15.999   -2.602557   -1.314427   -0.152573
   4 O     8.0000    0    15.999   -0.691755    2.503897    0.321539
   5 C     6.0000    0    12.011   -5.013802   -0.136773    0.282240
   6 N     7.0000    0    14.007    5.752449    1.175463   -0.805280
   7 H     1.0000    0     1.008    1.701475   -3.247485   -0.424429
   8 H     1.0000    0     1.008   -6.399561   -1.631285    0.083089
   9 H     1.0000    0     1.008   -5.090197    0.671412    2.168952
  10 H     1.0000    0     1.008   -5.349911    1.346806   -1.097993

--------------------------------
INTERNAL COORDINATES (ANGSTROEM)
--------------------------------
 C      0   0   0     0.000000000000     0.00000000     0.00000000
 C      1   0   0     1.472545636521     0.00000000     0.00000000
 N      1   2   0     1.309726539935   117.18801109     0.00000000
 O      2   1   3     1.348488392560   110.06935762   171.61488573
 O      2   1   3     1.210270306017   124.65783726   351.61503274
 C      4   2   1     1.438548165537   115.19671718   174.67001447
 N      3   1   2     1.173295224142   174.38761367   261.13469411
 H      1   2   3     1.078418220982   120.21713457   186.12498789
 H      6   4   2     1.083658341630   105.57582853   180.17837758
 H      6   4   2     1.086899719583   110.51016726   299.76131178
 H      6   4   2     1.086943186943   110.52143298    60.61011004

---------------------------
INTERNAL COORDINATES (A.U.)
---------------------------
 C      0   0   0     0.000000000000     0.00000000     0.00000000
 C      1   0   0     2.782707972725     0.00000000     0.00000000
 N      1   2   0     2.475024470805   117.18801109     0.00000000
 O      2   1   3     2.548273756711   110.06935762   171.61488573
 O      2   1   3     2.287079426389   124.65783726   351.61503274
 C      4   2   1     2.718462063319   115.19671718   174.67001447
 N      3   1   2     2.217206647866   174.38761367   261.13469411
 H      1   2   3     2.037915095486   120.21713457   186.12498789
 H      6   4   2     2.047817488420   105.57582853   180.17837758
 H      6   4   2     2.053942805048   110.51016726   299.76131178
 H      6   4   2     2.054024946453   110.52143298    60.61011004

---------------------
BASIS SET INFORMATION
---------------------
There are 4 groups of distinct atoms

 Group   1 Type C   : 7s4p1d contracted to 3s2p1d pattern {511/31/1}
 Group   2 Type N   : 7s4p1d contracted to 3s2p1d pattern {511/31/1}
 Group   3 Type O   : 7s4p1d contracted to 3s2p1d pattern {511/31/1}
 Group   4 Type H   : 4s1p contracted to 2s1p pattern {31/1}

Atom   0C    basis set group =>   1
Atom   1C    basis set group =>   1
Atom   2N    basis set group =>   2
Atom   3O    basis set group =>   3
Atom   4O    basis set group =>   3
Atom   5C    basis set group =>   1
Atom   6N    basis set group =>   2
Atom   7H    basis set group =>   4
Atom   8H    basis set group =>   4
Atom   9H    basis set group =>   4
Atom  10H    basis set group =>   4
---------------------------------
AUXILIARY/J BASIS SET INFORMATION
---------------------------------
There are 4 groups of distinct atoms

 Group   1 Type C   : 12s5p4d2f1g contracted to 6s4p3d1f1g pattern {711111/2111/211/2/1}
 Group   2 Type N   : 12s5p4d2f1g contracted to 6s4p3d1f1g pattern {711111/2111/211/2/1}
 Group   3 Type O   : 12s5p4d2f1g contracted to 6s4p3d1f1g pattern {711111/2111/211/2/1}
 Group   4 Type H   : 5s2p1d contracted to 3s1p1d pattern {311/2/1}

Atom   0C    basis set group =>   1
Atom   1C    basis set group =>   1
Atom   2N    basis set group =>   2
Atom   3O    basis set group =>   3
Atom   4O    basis set group =>   3
Atom   5C    basis set group =>   1
Atom   6N    basis set group =>   2
Atom   7H    basis set group =>   4
Atom   8H    basis set group =>   4
Atom   9H    basis set group =>   4
Atom  10H    basis set group =>   4
------------------------------------------------------------------------------
                           ORCA GTO INTEGRAL CALCULATION
                           -- RI-GTO INTEGRALS CHOSEN --
------------------------------------------------------------------------------
------------------------------------------------------------------------------
                   ___                                                        
                  /   \      - P O W E R E D   B Y -                         
                 /     \                                                     
                 |  |  |   _    _      __       _____    __    __             
                 |  |  |  | |  | |    /  \     |  _  \  |  |  /  |          
                  \  \/   | |  | |   /    \    | | | |  |  | /  /          
                 / \  \   | |__| |  /  /\  \   | |_| |  |  |/  /          
                |  |  |   |  __  | /  /__\  \  |    /   |      \           
                |  |  |   | |  | | |   __   |  |    \   |  |\   \          
                \     /   | |  | | |  |  |  |  | |\  \  |  | \   \       
                 \___/    |_|  |_| |__|  |__|  |_| \__\ |__|  \__/        
                                                                              
                      - O R C A' S   B I G   F R I E N D -                    
                                      &                                       
                       - I N T E G R A L  F E E D E R -                       
                                                                              
 v1 FN, 2020, v2 2021                                                         
------------------------------------------------------------------------------


Reading SHARK input file diazo_c01.SHARKINP.tmp ... ok
----------------------
SHARK INTEGRAL PACKAGE
----------------------

Number of atoms                             ...     11
Number of basis functions                   ...    118
Number of shells                            ...     54
Maximum angular momentum                    ...      2
Integral batch strategy                     ... SHARK/LIBINT Hybrid
RI-J (if used) integral strategy            ... SPLIT-RIJ (Revised 2003 algorithm where possible)
Printlevel                                  ...      1
Contraction scheme used                     ... SEGMENTED contraction
Coulomb Range Separation                    ... NOT USED
Exchange Range Separation                   ... NOT USED
Finite Nucleus Model                        ... NOT USED
Auxiliary Coulomb fitting basis             ... AVAILABLE
   # of basis functions in Aux-J            ...    387
   # of shells in Aux-J                     ...    125
   Maximum angular momentum in Aux-J        ...      4
Auxiliary J/K fitting basis                 ... NOT available
Auxiliary Correlation fitting basis         ... NOT available
Auxiliary 'external' fitting basis          ... NOT available
Integral threshold                          ...     2.500000e-11
Primitive cut-off                           ...     2.500000e-12
Primitive pair pre-selection threshold      ...     2.500000e-12

Calculating pre-screening integrals         ... done (  0.0 sec) Dimension = 54
Organizing shell pair data                  ... done (  0.0 sec)
Shell pair information
Total number of shell pairs                 ...      1485
Shell pairs after pre-screening             ...      1372
Total number of primitive shell pairs       ...      5563
Primitive shell pairs kept                  ...      3845
          la=0 lb=0:    400 shell pairs
          la=1 lb=0:    486 shell pairs
          la=1 lb=1:    163 shell pairs
          la=2 lb=0:    182 shell pairs
          la=2 lb=1:    116 shell pairs
          la=2 lb=2:     25 shell pairs

Calculating one electron integrals          ... done (  0.0 sec)
Calculating RI/J V-Matrix + Cholesky decomp.... done (  0.0 sec)
Calculating Nuclear repulsion               ... done (  0.0 sec) ENN=    277.406014339790 Eh

SHARK setup successfully completed in   0.2 seconds

Maximum memory used throughout the entire GTOINT-calculation: 13.9 MB
-------------------------------------------------------------------------------
                                 ORCA SCF
-------------------------------------------------------------------------------

------------
SCF SETTINGS
------------
Hamiltonian:
 Density Functional     Method          .... DFT(GTOs)
 Exchange Functional    Exchange        .... B88
   X-Alpha parameter    XAlpha          ....  0.666667
   Becke's b parameter  XBeta           ....  0.004200
 Correlation Functional Correlation     .... LYP
 LDA part of GGA corr.  LDAOpt          .... VWN-5
 Gradients option       PostSCFGGA      .... off
 Hybrid DFT is turned on
   Fraction HF Exchange ScalHFX         ....  0.200000
   Scaling of DF-GGA-X  ScalDFX         ....  0.720000
   Scaling of DF-GGA-C  ScalDFC         ....  0.810000
   Scaling of DF-LDA-C  ScalLDAC        ....  1.000000
   Perturbative correction              ....  0.000000
   Density functional embedding theory  .... OFF
   NL short-range parameter             ....  4.800000
 RI-approximation to the Coulomb term is turned on
   Number of AuxJ basis functions       .... 387
   RIJ-COSX (HFX calculated with COS-X)).... on


General Settings:
 Integral files         IntName         .... diazo_c01
 Hartree-Fock type      HFTyp           .... RHF
 Total Charge           Charge          ....    0
 Multiplicity           Mult            ....    1
 Number of Electrons    NEL             ....   52
 Basis Dimension        Dim             ....  118
 Nuclear Repulsion      ENuc            ....    277.4060143398 Eh

Convergence Acceleration:
 DIIS                   CNVDIIS         .... on
   Start iteration      DIISMaxIt       ....    12
   Startup error        DIISStart       ....  0.200000
   # of expansion vecs  DIISMaxEq       ....     5
   Bias factor          DIISBfac        ....   1.050
   Max. coefficient     DIISMaxC        ....  10.000
 Trust-Rad. Augm. Hess. CNVTRAH         .... auto
   Auto Start mean grad. ratio tolernc. ....  1.125000
   Auto Start start iteration           ....    20
   Auto Start num. interpolation iter.  ....    10
   Max. Number of Micro iterations      ....    16
   Max. Number of Macro iterations      .... Maxiter - #DIIS iter
   Number of Davidson start vectors     ....     2
   Converg. threshold I  (grad. norm)   ....   1.000e-05
   Converg. threshold II (energy diff.) ....   1.000e-08
   Grad. Scal. Fac. for Micro threshold ....   0.100
   Minimum threshold for Micro iter.    ....   0.010
   NR start threshold (gradient norm)   ....   0.001
   Initial trust radius                 ....   0.400
   Minimum AH scaling param. (alpha)    ....   1.000
   Maximum AH scaling param. (alpha)    .... 1000.000
   Orbital update algorithm             .... Taylor
   White noise on init. David. guess    .... on
   Maximum white noise                  ....   0.010
   Quad. conv. algorithm                .... NR
 SOSCF                  CNVSOSCF        .... on
   Start iteration      SOSCFMaxIt      ....   150
   Startup grad/error   SOSCFStart      ....  0.003300
 Level Shifting         CNVShift        .... on
   Level shift para.    LevelShift      ....    0.2500
   Turn off err/grad.   ShiftErr        ....    0.0010
 Zerner damping         CNVZerner       .... off
 Static damping         CNVDamp         .... on
   Fraction old density DampFac         ....    0.7000
   Max. Damping (<1)    DampMax         ....    0.9800
   Min. Damping (>=0)   DampMin         ....    0.0000
   Turn off err/grad.   DampErr         ....    0.1000
 Fernandez-Rico         CNVRico         .... off

SCF Procedure:
 Maximum # iterations   MaxIter         ....   125
 SCF integral mode      SCFMode         .... Direct
   Integral package                     .... SHARK and LIBINT hybrid scheme
 Reset frequency        DirectResetFreq ....    20
 Integral Threshold     Thresh          ....  2.500e-11 Eh
 Primitive CutOff       TCut            ....  2.500e-12 Eh

Convergence Tolerance:
 Convergence Check Mode ConvCheckMode   .... Total+1el-Energy
 Convergence forced     ConvForced      .... 0
 Energy Change          TolE            ....  1.000e-08 Eh
 1-El. energy change                    ....  1.000e-05 Eh
 Orbital Gradient       TolG            ....  1.000e-05
 Orbital Rotation angle TolX            ....  1.000e-05
 DIIS Error             TolErr          ....  5.000e-07


Diagonalization of the overlap matrix:
Smallest eigenvalue                        ... 2.803e-03
Time for diagonalization                   ...    0.002 sec
Threshold for overlap eigenvalues          ... 1.000e-08
Number of eigenvalues below threshold      ... 0
Time for construction of square roots      ...    0.001 sec
Total time needed                          ...    0.004 sec

Time for model grid setup =    0.119 sec

------------------------------
INITIAL GUESS: MODEL POTENTIAL
------------------------------
Loading Hartree-Fock densities                     ... done
Calculating cut-offs                               ... done
Initializing the effective Hamiltonian             ... done
Setting up the integral package (SHARK)            ... done
Starting the Coulomb interaction                   ... done (   0.1 sec)
Reading the grid                                   ... done
Mapping shells                                     ... done
Starting the XC term evaluation                    ... done (   0.1 sec)
  promolecular density results
     # of electrons  =     51.998111051
     EX              =    -46.087370427
     EC              =     -1.804059422
     EX+EC           =    -47.891429849
Transforming the Hamiltonian                       ... done (   0.0 sec)
Diagonalizing the Hamiltonian                      ... done (   0.0 sec)
Back transforming the eigenvectors                 ... done (   0.0 sec)
Now organizing SCF variables                       ... done
                      ------------------
                      INITIAL GUESS DONE (   0.3 sec)
                      ------------------
-------------------
DFT GRID GENERATION
-------------------

General Integration Accuracy     IntAcc      ... 4.388
Radial Grid Type                 RadialGrid  ... OptM3 with GC (2021)
Angular Grid (max. ang.)         AngularGrid ... 4 (Lebedev-302)
Angular grid pruning method      GridPruning ... 4 (adaptive)
Weight generation scheme         WeightScheme... Becke
Basis function cutoff            BFCut       ... 1.0000e-11
Integration weight cutoff        WCut        ... 1.0000e-14
Angular grids for H and He will be reduced by one unit
Partially contracted basis set               ... off
Rotationally invariant grid construction     ... off

Total number of grid points                  ...    55533
Total number of batches                      ...      874
Average number of points per batch           ...       63
Average number of grid points per atom       ...     5048
Time for grid setup =    0.510 sec

--------------------
COSX GRID GENERATION
--------------------

GRIDX 1
-------
General Integration Accuracy     IntAcc      ... 3.816
Radial Grid Type                 RadialGrid  ... OptM3 with GC (2021)
Angular Grid (max. ang.)         AngularGrid ... 1 (Lebedev-50)
Angular grid pruning method      GridPruning ... 4 (adaptive)
Weight generation scheme         WeightScheme... Becke
Basis function cutoff            BFCut       ... 1.0000e-11
Integration weight cutoff        WCut        ... 1.0000e-14
Angular grids for H and He will be reduced by one unit
Partially contracted basis set               ... on
Rotationally invariant grid construction     ... off

Total number of grid points                  ...     7073
Total number of batches                      ...      117
Average number of points per batch           ...       60
Average number of grid points per atom       ...      643
UseSFitting                                  ... on

GRIDX 2
-------
General Integration Accuracy     IntAcc      ... 4.020
Radial Grid Type                 RadialGrid  ... OptM3 with GC (2021)
Angular Grid (max. ang.)         AngularGrid ... 2 (Lebedev-110)
Angular grid pruning method      GridPruning ... 4 (adaptive)
Weight generation scheme         WeightScheme... Becke
Basis function cutoff            BFCut       ... 1.0000e-11
Integration weight cutoff        WCut        ... 1.0000e-14
Angular grids for H and He will be reduced by one unit
Partially contracted basis set               ... on
Rotationally invariant grid construction     ... off

Total number of grid points                  ...    15987
Total number of batches                      ...      256
Average number of points per batch           ...       62
Average number of grid points per atom       ...     1453
UseSFitting                                  ... on

GRIDX 3
-------
General Integration Accuracy     IntAcc      ... 4.338
Radial Grid Type                 RadialGrid  ... OptM3 with GC (2021)
Angular Grid (max. ang.)         AngularGrid ... 3 (Lebedev-194)
Angular grid pruning method      GridPruning ... 4 (adaptive)
Weight generation scheme         WeightScheme... Becke
Basis function cutoff            BFCut       ... 1.0000e-11
Integration weight cutoff        WCut        ... 1.0000e-14
Angular grids for H and He will be reduced by one unit
Partially contracted basis set               ... on
Rotationally invariant grid construction     ... off

Total number of grid points                  ...    35319
Total number of batches                      ...      558
Average number of points per batch           ...       63
Average number of grid points per atom       ...     3211
UseSFitting                                  ... on

Time for X-Grid setup             =    0.624 sec


--------------------
CPCM SOLVATION MODEL
--------------------
CPCM parameters:
  Epsilon                                         ...       9.0800
  Refrac                                          ...       1.4240
  Rsolv                                           ...       1.3000
  Surface type                                    ... GAUSSIAN VDW
  Epsilon function type                           ...         CPCM
Radii:
 Radius for C  used is    3.8550 Bohr (=   2.0400 Ang.)
 Radius for N  used is    3.5149 Bohr (=   1.8600 Ang.)
 Radius for O  used is    3.4469 Bohr (=   1.8240 Ang.)
 Radius for H  used is    2.4944 Bohr (=   1.3200 Ang.)
Calculating surface                               ...        done! (  0.0s)
GEPOL surface points                              ...          700
GEPOL Volume                                      ...     807.8956
GEPOL Surface-area                                ...     498.7168
Calculating surface distance matrix               ...        done! (  0.0s)
Performing Cholesky decomposition & store         ...        done! (  0.0s)
Overall time for CPCM initialization              ...                 0.0s
--------------
SCF ITERATIONS
--------------
ITER       Energy         Delta-E        Max-DP      RMS-DP      [F,P]     Damp
               ***  Starting incremental Fock matrix formation  ***
  0   -375.9965168991   0.000000000000 0.10326425  0.00293874  0.2823599 0.7000
  1   -376.0722764159  -0.075759516749 0.06115136  0.00184840  0.1116855 0.7000
                               ***Turning on DIIS***
  2   -376.0989849641  -0.026708548215 0.06859338  0.00271956  0.0294520 0.0000
  3   -376.1461829951  -0.047198030997 0.04171092  0.00128439  0.0598514 0.0000
  4   -376.1542857792  -0.008102784120 0.01003292  0.00038468  0.0146022 0.0000
  5   -376.1549162986  -0.000630519385 0.00540214  0.00012864  0.0036035 0.0000
                      *** Initiating the SOSCF procedure ***
                           *** Shutting down DIIS ***
                      *** Re-Reading the Fockian *** 
                      *** Removing any level shift *** 
ITER      Energy       Delta-E        Grad      Rot      Max-DP    RMS-DP
  6   -376.15495770  -0.0000414050  0.000422  0.000422  0.001196  0.000043
               *** Restarting incremental Fock matrix formation ***
  7   -376.15499537  -0.0000376656  0.000254  0.000970  0.001247  0.000036
  8   -376.15499465   0.0000007209  0.000450  0.000339  0.000646  0.000018
  9   -376.15499708  -0.0000024360  0.000088  0.000435  0.000428  0.000012
 10   -376.15499681   0.0000002738  0.000186  0.000291  0.000311  0.000008
 11   -376.15499717  -0.0000003639  0.000019  0.000046  0.000130  0.000003
 12   -376.15499716   0.0000000177  0.000029  0.000036  0.000072  0.000002
 13   -376.15499719  -0.0000000314  0.000005  0.000013  0.000028  0.000001
 14   -376.15499719   0.0000000027  0.000006  0.000007  0.000019  0.000000
                  ***Gradient check signals convergence***
              ***Rediagonalizing the Fockian in SOSCF/NRSCF***

               *****************************************************
               *                     SUCCESS                       *
               *           SCF CONVERGED AFTER  15 CYCLES          *
               *****************************************************

Old exchange energy                            =     -9.283433848 Eh
New exchange energy                            =     -9.283447308 Eh
Exchange energy change after final integration =     -0.000013460 Eh
Total energy after final integration           =   -376.155010648 Eh
Final COS-X integration done in                =     3.897 sec

----------------
TOTAL SCF ENERGY
----------------

Total Energy       :         -376.15501065 Eh          -10235.69821 eV

Components:
Nuclear Repulsion  :          277.40601434 Eh            7548.60141 eV
Electronic Energy  :         -653.56102499 Eh          -17784.29963 eV
One Electron Energy:        -1061.28482426 Eh          -28879.02825 eV
Two Electron Energy:          407.72379927 Eh           11094.72862 eV
Max COSX asymmetry :            0.00000169 Eh               0.00005 eV
CPCM Dielectric    :           -0.00871256 Eh              -0.23708 eV

Virial components:
Potential Energy   :         -749.09216084 Eh          -20383.83399 eV
Kinetic Energy     :          372.93715019 Eh           10148.13578 eV
Virial Ratio       :            2.00862843


DFT components:
N(Alpha)           :       26.000004433507 electrons
N(Beta)            :       26.000004433507 electrons
N(Total)           :       52.000008867013 electrons
E(X)               :      -37.006050458335 Eh       
E(C)               :       -2.126315030805 Eh       
E(XC)              :      -39.132365489139 Eh       
DFET-embed. en.    :        0.000000000000 Eh       
CPCM Solvation Model Properties:
Surface-charge          :           -0.01092429
Charge-correction       :           -0.00003903 Eh              -0.00106 eV
Free-energy (cav+disp)  :  This term is not implemented in the current solvation scheme

---------------
SCF CONVERGENCE
---------------

  Last Energy change         ...   -3.1113e-09  Tolerance :   1.0000e-08
  Last MAX-Density change    ...    2.6645e-15  Tolerance :   1.0000e-07
  Last RMS-Density change    ...    6.5771e-17  Tolerance :   5.0000e-09
  Last Orbital Gradient      ...    2.1673e-07  Tolerance :   1.0000e-05
  Last Orbital Rotation      ...    4.0874e-07  Tolerance :   1.0000e-05

             **** THE GBW FILE WAS UPDATED (diazo_c01.gbw) ****
             **** DENSITY diazo_c01.scfp WAS UPDATED ****
             **** ENERGY FILE WAS UPDATED (diazo_c01.en.tmp) ****
             **** THE GBW FILE WAS UPDATED (diazo_c01.gbw) ****
             **** DENSITY diazo_c01.scfp WAS UPDATED ****
----------------
ORBITAL ENERGIES
----------------

  NO   OCC          E(Eh)            E(eV) 
   0   2.0000     -19.178054      -521.8614 
   1   2.0000     -19.120726      -520.3014 
   2   2.0000     -14.489488      -394.2790 
   3   2.0000     -14.428395      -392.6166 
   4   2.0000     -10.322234      -280.8823 
   5   2.0000     -10.241294      -278.6798 
   6   2.0000     -10.234830      -278.5039 
   7   2.0000      -1.101175       -29.9645 
   8   2.0000      -1.090646       -29.6780 
   9   2.0000      -1.007990       -27.4288 
  10   2.0000      -0.860003       -23.4019 
  11   2.0000      -0.733638       -19.9633 
  12   2.0000      -0.618790       -16.8381 
  13   2.0000      -0.544413       -14.8142 
  14   2.0000      -0.540046       -14.6954 
  15   2.0000      -0.497864       -13.5476 
  16   2.0000      -0.475589       -12.9414 
  17   2.0000      -0.472086       -12.8461 
  18   2.0000      -0.462664       -12.5897 
  19   2.0000      -0.444477       -12.0948 
  20   2.0000      -0.409366       -11.1394 
  21   2.0000      -0.399263       -10.8645 
  22   2.0000      -0.361108        -9.8263 
  23   2.0000      -0.307603        -8.3703 
  24   2.0000      -0.287230        -7.8159 
  25   2.0000      -0.245458        -6.6793 
  26   0.0000      -0.078684        -2.1411 
  27   0.0000      -0.042584        -1.1588 
  28   0.0000       0.071222         1.9380 
  29   0.0000       0.085666         2.3311 
  30   0.0000       0.112994         3.0747 
  31   0.0000       0.129597         3.5265 
  32   0.0000       0.136248         3.7075 
  33   0.0000       0.148811         4.0493 
  34   0.0000       0.205837         5.6011 
  35   0.0000       0.235855         6.4180 
  36   0.0000       0.295022         8.0279 
  37   0.0000       0.302994         8.2449 
  38   0.0000       0.336697         9.1620 
  39   0.0000       0.434010        11.8100 
  40   0.0000       0.443025        12.0553 
  41   0.0000       0.471671        12.8348 
  42   0.0000       0.474986        12.9250 
  43   0.0000       0.495377        13.4799 
  44   0.0000       0.521530        14.1915 
  45   0.0000       0.551194        14.9988 
  46   0.0000       0.608624        16.5615 
  47   0.0000       0.614393        16.7185 
  48   0.0000       0.624232        16.9862 
  49   0.0000       0.648689        17.6517 
  50   0.0000       0.652548        17.7567 
  51   0.0000       0.658057        17.9067 
  52   0.0000       0.662020        18.0145 
  53   0.0000       0.692252        18.8371 
  54   0.0000       0.713018        19.4022 
  55   0.0000       0.736293        20.0356 
  56   0.0000       0.762358        20.7448 
  57   0.0000       0.793044        21.5798 
  58   0.0000       0.827945        22.5295 
  59   0.0000       0.872231        23.7346 
  60   0.0000       0.936232        25.4762 
  61   0.0000       0.965488        26.2723 
  62   0.0000       0.985293        26.8112 
  63   0.0000       1.016003        27.6468 
  64   0.0000       1.056262        28.7424 
  65   0.0000       1.069796        29.1106 
  66   0.0000       1.178943        32.0807 
  67   0.0000       1.213140        33.0112 
  68   0.0000       1.252013        34.0690 
  69   0.0000       1.306853        35.5613 
  70   0.0000       1.344031        36.5729 
  71   0.0000       1.425968        38.8026 
  72   0.0000       1.456479        39.6328 
  73   0.0000       1.521096        41.3911 
  74   0.0000       1.534648        41.7599 
  75   0.0000       1.589314        43.2474 
  76   0.0000       1.637073        44.5470 
  77   0.0000       1.668954        45.4146 
  78   0.0000       1.710299        46.5396 
  79   0.0000       1.730203        47.0812 
  80   0.0000       1.771506        48.2051 
  81   0.0000       1.780784        48.4576 
  82   0.0000       1.806506        49.1575 
  83   0.0000       1.844750        50.1982 
  84   0.0000       1.855006        50.4773 
  85   0.0000       1.914636        52.0999 
  86   0.0000       1.928807        52.4855 
  87   0.0000       1.939520        52.7770 
  88   0.0000       2.009100        54.6704 
  89   0.0000       2.051408        55.8216 
  90   0.0000       2.122811        57.7646 
  91   0.0000       2.145700        58.3875 
  92   0.0000       2.190564        59.6083 
  93   0.0000       2.229681        60.6727 
  94   0.0000       2.294779        62.4441 
  95   0.0000       2.331136        63.4334 
  96   0.0000       2.347617        63.8819 
  97   0.0000       2.369533        64.4783 
  98   0.0000       2.440190        66.4010 
  99   0.0000       2.526737        68.7560 
 100   0.0000       2.635687        71.7207 
 101   0.0000       2.678815        72.8943 
 102   0.0000       2.688629        73.1613 
 103   0.0000       2.755288        74.9752 
 104   0.0000       2.787104        75.8410 
 105   0.0000       2.810489        76.4773 
 106   0.0000       2.892164        78.6998 
 107   0.0000       2.922450        79.5239 
 108   0.0000       2.969167        80.7951 
 109   0.0000       3.039341        82.7047 
 110   0.0000       3.104971        84.4906 
 111   0.0000       3.113569        84.7245 
 112   0.0000       3.232417        87.9585 
 113   0.0000       3.306664        89.9789 
 114   0.0000       3.404894        92.6519 
 115   0.0000       3.600403        97.9719 
 116   0.0000       3.668214        99.8172 
 117   0.0000       3.737940       101.7145 

                    ********************************
                    * MULLIKEN POPULATION ANALYSIS *
                    ********************************

-----------------------
MULLIKEN ATOMIC CHARGES
-----------------------
   0 C :   -0.115358
   1 C :    0.221476
   2 N :    0.185260
   3 O :   -0.332405
   4 O :   -0.280609
   5 C :    0.199602
   6 N :   -0.070417
   7 H :    0.081835
   8 H :    0.041694
   9 H :    0.034795
  10 H :    0.034128
Sum of atomic charges:    0.0000000

--------------------------------
MULLIKEN REDUCED ORBITAL CHARGES
--------------------------------
  0 C s       :     3.143613  s :     3.143613
      pz      :     1.253775  p :     2.930593
      px      :     0.801481
      py      :     0.875337
      dz2     :     0.004110  d :     0.041152
      dxz     :     0.006651
      dyz     :     0.003642
      dx2y2   :     0.011499
      dxy     :     0.015250
  1 C s       :     3.003583  s :     3.003583
      pz      :     0.837380  p :     2.640225
      px      :     0.883996
      py      :     0.918849
      dz2     :     0.008386  d :     0.134716
      dxz     :     0.013294
      dyz     :     0.027427
      dx2y2   :     0.029066
      dxy     :     0.056543
  2 N s       :     3.391981  s :     3.391981
      pz      :     1.237315  p :     3.374131
      px      :     1.005753
      py      :     1.131063
      dz2     :     0.003894  d :     0.048628
      dxz     :     0.018460
      dyz     :     0.006973
      dx2y2   :     0.011175
      dxy     :     0.008126
  3 O s       :     3.751160  s :     3.751160
      pz      :     1.750204  p :     4.565079
      px      :     1.205051
      py      :     1.609824
      dz2     :     0.002187  d :     0.016166
      dxz     :     0.002324
      dyz     :     0.002086
      dx2y2   :     0.002543
      dxy     :     0.007025
  4 O s       :     3.718903  s :     3.718903
      pz      :     1.451890  p :     4.543714
      px      :     1.762261
      py      :     1.329563
      dz2     :     0.002119  d :     0.017992
      dxz     :     0.000116
      dyz     :     0.005593
      dx2y2   :     0.006241
      dxy     :     0.003923
  5 C s       :     2.994621  s :     2.994621
      pz      :     1.039283  p :     2.756086
      px      :     0.746632
      py      :     0.970171
      dz2     :     0.009597  d :     0.049692
      dxz     :     0.006768
      dyz     :     0.008754
      dx2y2   :     0.009599
      dxy     :     0.014973
  6 N s       :     3.864782  s :     3.864782
      pz      :     1.292958  p :     3.165787
      px      :     0.999906
      py      :     0.872923
      dz2     :     0.004171  d :     0.039848
      dxz     :     0.008605
      dyz     :     0.003277
      dx2y2   :     0.012387
      dxy     :     0.011409
  7 H s       :     0.893607  s :     0.893607
      pz      :     0.006451  p :     0.024559
      px      :     0.001737
      py      :     0.016370
  8 H s       :     0.935755  s :     0.935755
      pz      :     0.005205  p :     0.022551
      px      :     0.007555
      py      :     0.009791
  9 H s       :     0.941850  s :     0.941850
      pz      :     0.013855  p :     0.023355
      px      :     0.002870
      py      :     0.006630
 10 H s       :     0.942487  s :     0.942487
      pz      :     0.009600  p :     0.023385
      px      :     0.003335
      py      :     0.010450


                     *******************************
                     * LOEWDIN POPULATION ANALYSIS *
                     *******************************

----------------------
LOEWDIN ATOMIC CHARGES
----------------------
   0 C :   -0.154831
   1 C :    0.070085
   2 N :    0.235410
   3 O :   -0.109316
   4 O :   -0.232437
   5 C :    0.097545
   6 N :   -0.042189
   7 H :    0.058370
   8 H :    0.030003
   9 H :    0.024148
  10 H :    0.023213

-------------------------------
LOEWDIN REDUCED ORBITAL CHARGES
-------------------------------
  0 C s       :     2.866792  s :     2.866792
      pz      :     1.223771  p :     3.178244
      px      :     0.928070
      py      :     1.026404
      dz2     :     0.010716  d :     0.109795
      dxz     :     0.013609
      dyz     :     0.006358
      dx2y2   :     0.033801
      dxy     :     0.045311
  1 C s       :     2.834367  s :     2.834367
      pz      :     0.836815  p :     2.792688
      px      :     0.939577
      py      :     1.016296
      dz2     :     0.018666  d :     0.302860
      dxz     :     0.025771
      dyz     :     0.053822
      dx2y2   :     0.068914
      dxy     :     0.135687
  2 N s       :     3.091582  s :     3.091582
      pz      :     1.193305  p :     3.571876
      px      :     1.203787
      py      :     1.174785
      dz2     :     0.008334  d :     0.101133
      dxz     :     0.037183
      dyz     :     0.014179
      dx2y2   :     0.023013
      dxy     :     0.018423
  3 O s       :     3.457613  s :     3.457613
      pz      :     1.725446  p :     4.621114
      px      :     1.256159
      py      :     1.639509
      dz2     :     0.004128  d :     0.030588
      dxz     :     0.004231
      dyz     :     0.002331
      dx2y2   :     0.005605
      dxy     :     0.014293
  4 O s       :     3.541702  s :     3.541702
      pz      :     1.448640  p :     4.659950
      px      :     1.751286
      py      :     1.460024
      dz2     :     0.004332  d :     0.030785
      dxz     :     0.000155
      dyz     :     0.007346
      dx2y2   :     0.013017
      dxy     :     0.005935
  5 C s       :     2.842699  s :     2.842699
      pz      :     1.084919  p :     2.946013
      px      :     0.820456
      py      :     1.040638
      dz2     :     0.022246  d :     0.113744
      dxz     :     0.014173
      dyz     :     0.022504
      dx2y2   :     0.019839
      dxy     :     0.034983
  6 N s       :     3.512859  s :     3.512859
      pz      :     1.310316  p :     3.454355
      px      :     1.188149
      py      :     0.955890
      dz2     :     0.009328  d :     0.074975
      dxz     :     0.014270
      dyz     :     0.005401
      dx2y2   :     0.020747
      dxy     :     0.025228
  7 H s       :     0.862340  s :     0.862340
      pz      :     0.022600  p :     0.079291
      px      :     0.008125
      py      :     0.048565
  8 H s       :     0.904495  s :     0.904495
      pz      :     0.013237  p :     0.065502
      px      :     0.023757
      py      :     0.028508
  9 H s       :     0.908850  s :     0.908850
      pz      :     0.040155  p :     0.067003
      px      :     0.009217
      py      :     0.017631
 10 H s       :     0.909512  s :     0.909512
      pz      :     0.026793  p :     0.067275
      px      :     0.010498
      py      :     0.029984


                      *****************************
                      * MAYER POPULATION ANALYSIS *
                      *****************************

  NA   - Mulliken gross atomic population
  ZA   - Total nuclear charge
  QA   - Mulliken gross atomic charge
  VA   - Mayer's total valence
  BVA  - Mayer's bonded valence
  FA   - Mayer's free valence

  ATOM       NA         ZA         QA         VA         BVA        FA
  0 C      6.1154     6.0000    -0.1154     3.6617     3.6617    -0.0000
  1 C      5.7785     6.0000     0.2215     4.3650     4.3650    -0.0000
  2 N      6.8147     7.0000     0.1853     3.5794     3.5794     0.0000
  3 O      8.3324     8.0000    -0.3324     2.1802     2.1802     0.0000
  4 O      8.2806     8.0000    -0.2806     2.2322     2.2322    -0.0000
  5 C      5.8004     6.0000     0.1996     3.8934     3.8934     0.0000
  6 N      7.0704     7.0000    -0.0704     2.6039     2.6039     0.0000
  7 H      0.9182     1.0000     0.0818     1.0082     1.0082     0.0000
  8 H      0.9583     1.0000     0.0417     0.9923     0.9923     0.0000
  9 H      0.9652     1.0000     0.0348     0.9977     0.9977     0.0000
 10 H      0.9659     1.0000     0.0341     1.0005     1.0005     0.0000

  Mayer bond orders larger than 0.100000
B(  0-C ,  1-C ) :   1.0420 B(  0-C ,  2-N ) :   1.3616 B(  0-C ,  6-N ) :   0.3015 
B(  0-C ,  7-H ) :   0.9444 B(  1-C ,  3-O ) :   1.1653 B(  1-C ,  4-O ) :   2.0434 
B(  2-N ,  6-N ) :   2.1663 B(  3-O ,  5-C ) :   0.9052 B(  5-C ,  8-H ) :   0.9803 
B(  5-C ,  9-H ) :   0.9756 B(  5-C , 10-H ) :   0.9755 

-------
TIMINGS
-------

Total SCF time: 0 days 0 hours 0 min 36 sec 

Total time                  ....      36.914 sec
Sum of individual times     ....      36.616 sec  ( 99.2%)

Fock matrix formation       ....      35.095 sec  ( 95.1%)
  Split-RI-J                ....       2.002 sec  (  5.7% of F)
  Chain of spheres X        ....      23.453 sec  ( 66.8% of F)
  XC integration            ....       6.041 sec  ( 17.2% of F)
    Basis function eval.    ....       2.275 sec  ( 37.7% of XC)
    Density eval.           ....       1.501 sec  ( 24.8% of XC)
    XC-Functional eval.     ....       0.498 sec  (  8.2% of XC)
    XC-Potential eval.      ....       1.219 sec  ( 20.2% of XC)
Diagonalization             ....       0.019 sec  (  0.1%)
Density matrix formation    ....       0.002 sec  (  0.0%)
Population analysis         ....       0.022 sec  (  0.1%)
Initial guess               ....       0.196 sec  (  0.5%)
Orbital Transformation      ....       0.000 sec  (  0.0%)
Orbital Orthonormalization  ....       0.000 sec  (  0.0%)
DIIS solution               ....       0.008 sec  (  0.0%)
SOSCF solution              ....       0.020 sec  (  0.1%)
Grid generation             ....       1.253 sec  (  3.4%)

Maximum memory used throughout the entire SCF-calculation: 58.5 MB


-------------------------------------------------------------------------------
                          DFT DISPERSION CORRECTION                            
                                                                               
                              DFTD3 V3.1  Rev 1                                
                          USING Becke-Johnson damping                          
-------------------------------------------------------------------------------
The B3LYP functional is recognized
Active option DFTDOPT                   ...         4   

molecular C6(AA) [au] = 1380.455286 


            DFT-D V3
 parameters
 s6 scaling factor         :     1.0000 
 a1 scaling factor         :     0.3981 
 s8 scaling factor         :     1.9889 
 a2 scaling factor         :     4.4211 
 ad hoc parameters k1-k3   :    16.0000     1.3333    -4.0000 

 Edisp/kcal,au: -8.537800465687  -0.013605849645 
 E6   /kcal   :  -4.070562748 
 E8   /kcal   :  -4.467237717 
 % E8         :  52.323051297 

-------------------------   ----------------
Dispersion correction           -0.013605850
-------------------------   ----------------


-------------------------   --------------------
FINAL SINGLE POINT ENERGY      -376.168616497826
-------------------------   --------------------

------------------------------------------------------------------------------
                         ORCA SCF GRADIENT CALCULATION
------------------------------------------------------------------------------

 ... reading COSX grid (gridx3)
Gradient of the Kohn-Sham DFT energy:
Kohn-Sham wavefunction type      ... RKS
Hartree-Fock exchange scaling    ...    0.200
Number of operators              ...    1
Number of atoms                  ...   11
Basis set dimensions             ...  118
Integral neglect threshold       ... 2.5e-11
Integral primitive cutoff        ... 2.5e-12
SHARK Integral package           ... ON

Nuc. rep. gradient       (SHARK) ... done (  0.0 sec)
HCore & Overlap gradient (SHARK) ... done (  0.1 sec)
RI-J gradient            (SHARK) ... done (  0.5 sec)
COSX-gradient                    ... done (  4.7 sec)
Exchange-correlation gradient    ... done
Dispersion correction            ... done

------------------
CARTESIAN GRADIENT
------------------

   1   C   :    0.005613066   -0.019359202   -0.001667849
   2   C   :   -0.008338734    0.009400009    0.000224550
   3   N   :   -0.063249689   -0.028102570    0.025115713
   4   O   :   -0.001006787   -0.006733765   -0.003653059
   5   O   :    0.005071257   -0.006400676   -0.000770895
   6   C   :   -0.008920872    0.005469321    0.003553003
   7   N   :    0.070859431    0.040377040   -0.021459241
   8   H   :   -0.008414235    0.008842384    0.000449374
   9   H   :    0.006564473    0.005970012    0.000700113
  10   H   :    0.000241267   -0.003346113   -0.008385055
  11   H   :    0.001767144   -0.006169631    0.005957953

Difference to translation invariance:
           :    0.0001863218   -0.0000531895    0.0000646067

Difference to rotation invariance:
           :    0.0000595879   -0.0002043034   -0.0000144864

Norm of the cartesian gradient     ...    0.1171994648
RMS gradient                       ...    0.0204018081
MAX gradient                       ...    0.0708594307

-------
TIMINGS
-------

Total SCF gradient time            ...        8.858 sec

One electron gradient       ....       0.068 sec  (  0.8%)
RI-J Coulomb gradient       ....       0.500 sec  (  5.6%)
COSX gradient               ....       4.694 sec  ( 53.0%)
XC gradient                 ....       2.818 sec  ( 31.8%)
CPCM gradient               ....       0.192 sec  (  2.2%)
   A-Matrix (El+Nuc)        ....       0.035 sec  (  0.4%)
   Potential                ....       0.158 sec  (  1.8%)

Maximum memory used throughout the entire SCFGRAD-calculation: 46.5 MB
------------------------------------------------------------------------------
                         ORCA GEOMETRY RELAXATION STEP
------------------------------------------------------------------------------

Reading the OPT-File                    .... done
Getting information on internals        .... done
Copying old internal coords+grads       .... done
Making the new internal coordinates     .... (new redundants).... done
Validating the new internal coordinates .... (new redundants).... done
Calculating the B-matrix                .... done
Calculating the G,G- and P matrices     .... done
Transforming gradient to internals      .... done
Projecting the internal gradient        .... done
Number of atoms                         ....  11
Number of internal coordinates          ....  35
Current Energy                          ....  -376.168616498 Eh
Current gradient norm                   ....     0.117199465 Eh/bohr
Maximum allowed component of the step   ....  0.300
Current trust radius                    ....  0.300
Evaluating the initial hessian          ....  (Almloef) done
Projecting the Hessian                  .... done
Forming the augmented Hessian           .... done
Diagonalizing the augmented Hessian     .... done
Last element of RFO vector              ....  0.987960515
Lowest eigenvalues of augmented Hessian:
 -0.008964677  0.014580442  0.017276801  0.020194771  0.025226749
Length of the computed step             ....  0.156591523
The final length of the internal step   ....  0.156591523
Converting the step to cartesian space:
 Initial RMS(Int)=    0.0264687984
Transforming coordinates:
 Iter   0:  RMS(Cart)=    0.0402964429 RMS(Int)=    0.0263454474
 Iter   1:  RMS(Cart)=    0.0014005623 RMS(Int)=    0.0009480098
 Iter   2:  RMS(Cart)=    0.0000540334 RMS(Int)=    0.0001085393
 Iter   3:  RMS(Cart)=    0.0000053640 RMS(Int)=    0.0000532883
 Iter   4:  RMS(Cart)=    0.0000023250 RMS(Int)=    0.0000267396
 Iter   5:  RMS(Cart)=    0.0000011821 RMS(Int)=    0.0000136881
 Iter   6:  RMS(Cart)=    0.0000006051 RMS(Int)=    0.0000070164
 Iter   7:  RMS(Cart)=    0.0000003102 RMS(Int)=    0.0000035959
 Iter   8:  RMS(Cart)=    0.0000001590 RMS(Int)=    0.0000018429
 Iter   9:  RMS(Cart)=    0.0000000815 RMS(Int)=    0.0000009444
done
Storing new coordinates                 .... done

                                .--------------------.
          ----------------------|Geometry convergence|-------------------------
          Item                value                   Tolerance       Converged
          ---------------------------------------------------------------------
          RMS gradient        0.0152094162            0.0001000000      NO
          MAX gradient        0.0840291283            0.0003000000      NO
          RMS step            0.0264687984            0.0020000000      NO
          MAX step            0.0750220392            0.0040000000      NO
          ........................................................
          Max(Bonds)      0.0397      Max(Angles)    1.78
          Max(Dihed)        3.92      Max(Improp)    0.00
          ---------------------------------------------------------------------

The optimization has not yet converged - more geometry cycles are needed


    ---------------------------------------------------------------------------
                         Redundant Internal Coordinates
                            (Angstroem and degrees)

        Definition                    Value    dE/dq     Step     New-Value
    ----------------------------------------------------------------------------
     1. B(C   1,C   0)                1.4725  0.002870 -0.0032    1.4693   
     2. B(N   2,C   0)                1.3097  0.012530 -0.0087    1.3010   
     3. B(O   3,C   1)                1.3485  0.004181 -0.0033    1.3451   
     4. B(O   4,C   1)                1.2103 -0.006660  0.0032    1.2135   
     5. B(C   5,O   3)                1.4385  0.001497 -0.0017    1.4369   
     6. B(N   6,N   2)                1.1733  0.084029 -0.0397    1.1336   
     7. B(H   7,C   0)                1.0784 -0.008575  0.0118    1.0902   
     8. B(H   8,C   5)                1.0837 -0.008858  0.0124    1.0961   
     9. B(H   9,C   5)                1.0869 -0.009026  0.0128    1.0997   
    10. B(H  10,C   5)                1.0869 -0.008744  0.0124    1.0993   
    11. A(C   1,C   0,H   7)          120.22 -0.007529    1.36    121.58   
    12. A(N   2,C   0,H   7)          122.30  0.010006   -1.42    120.88   
    13. A(C   1,C   0,N   2)          117.19 -0.002737    0.46    117.65   
    14. A(C   0,C   1,O   4)          124.66 -0.005805    0.71    125.37   
    15. A(C   0,C   1,O   3)          110.07  0.000726   -0.11    109.96   
    16. A(O   3,C   1,O   4)          125.27  0.005079   -0.61    124.67   
    17. A(C   0,N   2,N   6)          174.39 -0.015544    1.78    176.17   
    18. A(C   1,O   3,C   5)          115.20 -0.003609    0.49    115.69   
    19. A(H   9,C   5,H  10)          109.08 -0.000094    0.02    109.10   
    20. A(H   8,C   5,H  10)          110.55  0.000542   -0.09    110.46   
    21. A(O   3,C   5,H  10)          110.52 -0.000257    0.05    110.57   
    22. A(H   8,C   5,H   9)          110.57  0.000389   -0.08    110.49   
    23. A(O   3,C   5,H   9)          110.51  0.000504   -0.08    110.43   
    24. A(O   3,C   5,H   8)          105.58 -0.001093    0.19    105.76   
    25. D(O   4,C   1,C   0,N   2)     -8.38 -0.001820    3.92     -4.46   
    26. D(O   3,C   1,C   0,H   7)     -2.26  0.000406   -0.47     -2.73   
    27. D(O   3,C   1,C   0,N   2)    171.61 -0.001610    3.51    175.13   
    28. D(O   4,C   1,C   0,H   7)    177.74  0.000196   -0.06    177.68   
    29. D(N   6,N   2,C   0,H   7)     74.87 -0.001703    2.22     77.09   
    30. D(N   6,N   2,C   0,C   1)    -98.87  0.001534   -2.03   -100.90   
    31. D(C   5,O   3,C   1,C   0)    174.67 -0.001510    2.20    176.87   
    32. D(C   5,O   3,C   1,O   4)     -5.33 -0.001298    1.78     -3.55   
    33. D(H  10,C   5,O   3,C   1)     60.61 -0.000013    0.15     60.76   
    34. D(H   9,C   5,O   3,C   1)    -60.24 -0.000057    0.15    -60.09   
    35. D(H   8,C   5,O   3,C   1)   -179.82 -0.000146    0.18   -179.65   
    ----------------------------------------------------------------------------

         *************************************************************
         *                GEOMETRY OPTIMIZATION CYCLE   2            *
         *************************************************************
---------------------------------
CARTESIAN COORDINATES (ANGSTROEM)
---------------------------------
  C      0.933240   -0.635950   -0.163897
  C     -0.307860    0.133358   -0.000413
  N      2.050205    0.028148   -0.227023
  O     -1.369798   -0.690138   -0.059940
  O     -0.374009    1.334756    0.157213
  C     -2.649337   -0.073176    0.156356
  N      3.021565    0.597842   -0.357196
  H      0.922159   -1.721470   -0.264339
  H     -3.386191   -0.880950    0.079390
  H     -2.688516    0.389994    1.152988
  H     -2.841094    0.695791   -0.605535

----------------------------
CARTESIAN COORDINATES (A.U.)
----------------------------
  NO LB      ZA    FRAG     MASS         X           Y           Z
   0 C     6.0000    0    12.011    1.763567   -1.201771   -0.309721
   1 C     6.0000    0    12.011   -0.581771    0.252010   -0.000781
   2 N     7.0000    0    14.007    3.874325    0.053192   -0.429010
   3 O     8.0000    0    15.999   -2.588543   -1.304172   -0.113270
   4 O     8.0000    0    15.999   -0.706774    2.522323    0.297089
   5 C     6.0000    0    12.011   -5.006521   -0.138282    0.295470
   6 N     7.0000    0    14.007    5.709931    1.129757   -0.675003
   7 H     1.0000    0     1.008    1.742628   -3.253107   -0.499527
   8 H     1.0000    0     1.008   -6.398973   -1.664755    0.150026
   9 H     1.0000    0     1.008   -5.080558    0.736981    2.178832
  10 H     1.0000    0     1.008   -5.368890    1.314854   -1.144296

--------------------------------
INTERNAL COORDINATES (ANGSTROEM)
--------------------------------
 C      0   0   0     0.000000000000     0.00000000     0.00000000
 C      1   0   0     1.469316242957     0.00000000     0.00000000
 N      1   2   0     1.301007795546   117.60191461     0.00000000
 O      2   1   3     1.345140147388   109.96101032   175.14641960
 O      2   1   3     1.213498086473   125.37025850   355.56202061
 C      4   2   1     1.436887495447   115.68900160   176.86841652
 N      3   1   2     1.133595274261   176.17187952   259.13886028
 H      1   2   3     1.090213564470   121.53328895   182.09903771
 H      6   4   2     1.096073918910   105.76202191   180.35408215
 H      6   4   2     1.099698510424   110.42564984   299.91055693
 H      6   4   2     1.099344456076   110.56939940    60.75826269

---------------------------
INTERNAL COORDINATES (A.U.)
---------------------------
 C      0   0   0     0.000000000000     0.00000000     0.00000000
 C      1   0   0     2.776605303310     0.00000000     0.00000000
 N      1   2   0     2.458548431679   117.60191461     0.00000000
 O      2   1   3     2.541946490305   109.96101032   175.14641960
 O      2   1   3     2.293179047471   125.37025850   355.56202061
 C      4   2   1     2.715323851650   115.68900160   176.86841652
 N      3   1   2     2.142184615060   176.17187952   259.13886028
 H      1   2   3     2.060205064335   121.53328895   182.09903771
 H      6   4   2     2.071279529274   105.76202191   180.35408215
 H      6   4   2     2.078129014582   110.42564984   299.91055693
 H      6   4   2     2.077459948829   110.56939940    60.75826269

------------------------------------------------------------------------------
                   ___                                                        
                  /   \      - P O W E R E D   B Y -                         
                 /     \                                                     
                 |  |  |   _    _      __       _____    __    __             
                 |  |  |  | |  | |    /  \     |  _  \  |  |  /  |          
                  \  \/   | |  | |   /    \    | | | |  |  | /  /          
                 / \  \   | |__| |  /  /\  \   | |_| |  |  |/  /          
                |  |  |   |  __  | /  /__\  \  |    /   |      \           
                |  |  |   | |  | | |   __   |  |    \   |  |\   \          
                \     /   | |  | | |  |  |  |  | |\  \  |  | \   \       
                 \___/    |_|  |_| |__|  |__|  |_| \__\ |__|  \__/        
                                                                              
                      - O R C A' S   B I G   F R I E N D -                    
                                      &                                       
                       - I N T E G R A L  F E E D E R -                       
                                                                              
 v1 FN, 2020, v2 2021                                                         
------------------------------------------------------------------------------


Reading SHARK input file diazo_c01.SHARKINP.tmp ... ok
----------------------
SHARK INTEGRAL PACKAGE
----------------------

Number of atoms                             ...     11
Number of basis functions                   ...    118
Number of shells                            ...     54
Maximum angular momentum                    ...      2
Integral batch strategy                     ... SHARK/LIBINT Hybrid
RI-J (if used) integral strategy            ... SPLIT-RIJ (Revised 2003 algorithm where possible)
Printlevel                                  ...      1
Contraction scheme used                     ... SEGMENTED contraction
Coulomb Range Separation                    ... NOT USED
Exchange Range Separation                   ... NOT USED
Finite Nucleus Model                        ... NOT USED
Auxiliary Coulomb fitting basis             ... AVAILABLE
   # of basis functions in Aux-J            ...    387
   # of shells in Aux-J                     ...    125
   Maximum angular momentum in Aux-J        ...      4
Auxiliary J/K fitting basis                 ... NOT available
Auxiliary Correlation fitting basis         ... NOT available
Auxiliary 'external' fitting basis          ... NOT available
Integral threshold                          ...     2.500000e-11
Primitive cut-off                           ...     2.500000e-12
Primitive pair pre-selection threshold      ...     2.500000e-12

Calculating pre-screening integrals         ... done (  0.0 sec) Dimension = 54
Organizing shell pair data                  ... done (  0.0 sec)
Shell pair information
Total number of shell pairs                 ...      1485
Shell pairs after pre-screening             ...      1372
Total number of primitive shell pairs       ...      5563
Primitive shell pairs kept                  ...      3845
          la=0 lb=0:    400 shell pairs
          la=1 lb=0:    486 shell pairs
          la=1 lb=1:    163 shell pairs
          la=2 lb=0:    182 shell pairs
          la=2 lb=1:    116 shell pairs
          la=2 lb=2:     25 shell pairs

Calculating one electron integrals          ... done (  0.0 sec)
Calculating RI/J V-Matrix + Cholesky decomp.... done (  0.0 sec)
Calculating Nuclear repulsion               ... done (  0.0 sec) ENN=    278.569897896416 Eh

SHARK setup successfully completed in   0.1 seconds

Maximum memory used throughout the entire GTOINT-calculation: 13.8 MB

Diagonalization of the overlap matrix:
Smallest eigenvalue                        ... 2.710e-03
Time for diagonalization                   ...    0.002 sec
Threshold for overlap eigenvalues          ... 1.000e-08
Number of eigenvalues below threshold      ... 0
Time for construction of square roots      ...    0.001 sec
Total time needed                          ...    0.004 sec

-------------------
DFT GRID GENERATION
-------------------

General Integration Accuracy     IntAcc      ... 4.388
Radial Grid Type                 RadialGrid  ... OptM3 with GC (2021)
Angular Grid (max. ang.)         AngularGrid ... 4 (Lebedev-302)
Angular grid pruning method      GridPruning ... 4 (adaptive)
Weight generation scheme         WeightScheme... Becke
Basis function cutoff            BFCut       ... 1.0000e-11
Integration weight cutoff        WCut        ... 1.0000e-14
Angular grids for H and He will be reduced by one unit
Partially contracted basis set               ... off
Rotationally invariant grid construction     ... off

Total number of grid points                  ...    55531
Total number of batches                      ...      876
Average number of points per batch           ...       63
Average number of grid points per atom       ...     5048
Time for grid setup =    0.466 sec

--------------------
COSX GRID GENERATION
--------------------

GRIDX 1
-------
General Integration Accuracy     IntAcc      ... 3.816
Radial Grid Type                 RadialGrid  ... OptM3 with GC (2021)
Angular Grid (max. ang.)         AngularGrid ... 1 (Lebedev-50)
Angular grid pruning method      GridPruning ... 4 (adaptive)
Weight generation scheme         WeightScheme... Becke
Basis function cutoff            BFCut       ... 1.0000e-11
Integration weight cutoff        WCut        ... 1.0000e-14
Angular grids for H and He will be reduced by one unit
Partially contracted basis set               ... on
Rotationally invariant grid construction     ... off

Total number of grid points                  ...     7071
Total number of batches                      ...      117
Average number of points per batch           ...       60
Average number of grid points per atom       ...      643
UseSFitting                                  ... on

GRIDX 2
-------
General Integration Accuracy     IntAcc      ... 4.020
Radial Grid Type                 RadialGrid  ... OptM3 with GC (2021)
Angular Grid (max. ang.)         AngularGrid ... 2 (Lebedev-110)
Angular grid pruning method      GridPruning ... 4 (adaptive)
Weight generation scheme         WeightScheme... Becke
Basis function cutoff            BFCut       ... 1.0000e-11
Integration weight cutoff        WCut        ... 1.0000e-14
Angular grids for H and He will be reduced by one unit
Partially contracted basis set               ... on
Rotationally invariant grid construction     ... off

Total number of grid points                  ...    15978
Total number of batches                      ...      256
Average number of points per batch           ...       62
Average number of grid points per atom       ...     1453
UseSFitting                                  ... on

GRIDX 3
-------
General Integration Accuracy     IntAcc      ... 4.338
Radial Grid Type                 RadialGrid  ... OptM3 with GC (2021)
Angular Grid (max. ang.)         AngularGrid ... 3 (Lebedev-194)
Angular grid pruning method      GridPruning ... 4 (adaptive)
Weight generation scheme         WeightScheme... Becke
Basis function cutoff            BFCut       ... 1.0000e-11
Integration weight cutoff        WCut        ... 1.0000e-14
Angular grids for H and He will be reduced by one unit
Partially contracted basis set               ... on
Rotationally invariant grid construction     ... off

Total number of grid points                  ...    35314
Total number of batches                      ...      557
Average number of points per batch           ...       63
Average number of grid points per atom       ...     3210
UseSFitting                                  ... on

Time for X-Grid setup             =    0.575 sec


--------------------
CPCM SOLVATION MODEL
--------------------
CPCM parameters:
  Epsilon                                         ...       9.0800
  Refrac                                          ...       1.4240
  Rsolv                                           ...       1.3000
  Surface type                                    ... GAUSSIAN VDW
  Epsilon function type                           ...         CPCM
Radii:
 Radius for C  used is    3.8550 Bohr (=   2.0400 Ang.)
 Radius for N  used is    3.5149 Bohr (=   1.8600 Ang.)
 Radius for O  used is    3.4469 Bohr (=   1.8240 Ang.)
 Radius for H  used is    2.4944 Bohr (=   1.3200 Ang.)
Calculating surface                               ...        done! (  0.0s)
GEPOL surface points                              ...          697
GEPOL Volume                                      ...     804.9494
GEPOL Surface-area                                ...     497.2338
Calculating surface distance matrix               ...        done! (  0.0s)
Performing Cholesky decomposition & store         ...        done! (  0.0s)
Overall time for CPCM initialization              ...                 0.0s
--------------
SCF ITERATIONS
--------------
ITER       Energy         Delta-E        Max-DP      RMS-DP      [F,P]     Damp
               ***  Starting incremental Fock matrix formation  ***
  0   -376.1546642828   0.000000000000 0.00817517  0.00030048  0.0350225 0.7000
                      *** Initiating the SOSCF procedure ***
                      *** Re-Reading the Fockian *** 
                      *** Removing any level shift *** 
ITER      Energy       Delta-E        Grad      Rot      Max-DP    RMS-DP
  1   -376.15617024  -0.0015059612  0.002321  0.002321  0.024473  0.000907
               *** Restarting incremental Fock matrix formation ***
  2   -376.16001043  -0.0038401906  0.002618  0.012445  0.009561  0.000317
  3   -376.16005056  -0.0000401281  0.002698  0.004645  0.005467  0.000153
  4   -376.16016623  -0.0001156639  0.000432  0.000766  0.002562  0.000067
  5   -376.16016776  -0.0000015293  0.000386  0.000519  0.001185  0.000031
  6   -376.16017199  -0.0000042378  0.000311  0.000547  0.001201  0.000029
  7   -376.16017127   0.0000007260  0.000306  0.000292  0.000659  0.000019
  8   -376.16017310  -0.0000018354  0.000034  0.000061  0.000158  0.000004
  9   -376.16017310   0.0000000013  0.000037  0.000045  0.000083  0.000002
 10   -376.16017313  -0.0000000280  0.000009  0.000020  0.000045  0.000001
 11   -376.16017313   0.0000000030  0.000014  0.000010  0.000029  0.000001
                  ***Gradient check signals convergence***
              ***Rediagonalizing the Fockian in SOSCF/NRSCF***

               *****************************************************
               *                     SUCCESS                       *
               *           SCF CONVERGED AFTER  12 CYCLES          *
               *****************************************************

Old exchange energy                            =     -9.291056438 Eh
New exchange energy                            =     -9.291076653 Eh
Exchange energy change after final integration =     -0.000020215 Eh
Total energy after final integration           =   -376.160193347 Eh
Final COS-X integration done in                =     3.951 sec
Total Energy       :         -376.16019335 Eh          -10235.83924 eV
  Last Energy change         ...   -4.7084e-09  Tolerance :   1.0000e-08
  Last MAX-Density change    ...    3.1086e-15  Tolerance :   1.0000e-07
             **** THE GBW FILE WAS UPDATED (diazo_c01.gbw) ****
             **** DENSITY diazo_c01.scfp WAS UPDATED ****
             **** ENERGY FILE WAS UPDATED (diazo_c01.en.tmp) ****
             **** THE GBW FILE WAS UPDATED (diazo_c01.gbw) ****
             **** DENSITY diazo_c01.scfp WAS UPDATED ****
Total SCF time: 0 days 0 hours 0 min 34 sec 

Maximum memory used throughout the entire SCF-calculation: 58.6 MB


-------------------------------------------------------------------------------
[...]
     23       0.304944   0.117012   0.039748   0.418928   0.013220   0.036394
     24      -0.034862  -0.043435   0.091492   0.040265   0.155278   0.217829
     25       0.048665   0.065253  -0.399154  -0.058868  -0.494073   0.126568
     26      -0.431907  -0.513922  -0.074774   0.526490  -0.052111  -0.014298
     27      -0.247041  -0.154062  -0.219940   0.399372  -0.317576   0.385656
     28       0.092915  -0.498843  -0.292535   0.071422  -0.297886   0.061157
     29      -0.343701   0.285902  -0.005304   0.118956  -0.001975  -0.034598
     30       0.177844   0.206847  -0.207037  -0.363096  -0.342520   0.397023
     31      -0.007523   0.414852  -0.262144  -0.099082  -0.314689   0.069748
     32      -0.391366   0.372706  -0.004950   0.159899  -0.022046  -0.011863
                 12         13         14         15         16         17    
      0       0.212112   0.011052   0.024838   0.123376  -0.017507   0.139025
      1      -0.056395  -0.014302  -0.031517  -0.256499   0.015964  -0.295426
      2      -0.024967   0.126500   0.274579  -0.030653  -0.288381  -0.045951
      3      -0.010521   0.004479   0.008286   0.145857   0.081936   0.096953
      4      -0.003413  -0.005606  -0.010232  -0.063136  -0.095540   0.154066
      5       0.000651   0.049861   0.091438  -0.046552   0.807817   0.009114
      6       0.460888  -0.001713  -0.056775  -0.115296  -0.005262  -0.050512
      7      -0.358820   0.001938   0.073076   0.118683   0.004805   0.074628
      8      -0.080531  -0.013535  -0.650299   0.023088   0.026567   0.013070
      9      -0.164565  -0.001322  -0.003221   0.113717  -0.010068   0.038520
     10       0.106108   0.001755   0.004011   0.324107   0.042909  -0.221229
     11       0.026427  -0.016446  -0.033512   0.032420  -0.188993  -0.028410
     12      -0.202259  -0.003758  -0.001062  -0.211213  -0.034865  -0.038308
     13      -0.028181   0.005062   0.000632  -0.104257   0.020076   0.250484
     14       0.014672  -0.044629  -0.004818   0.015023  -0.239569   0.031544
     15      -0.299823   0.000779  -0.000927   0.001551  -0.001217  -0.195129
     16       0.054862  -0.000608   0.000773   0.024353   0.003192   0.030618
     17       0.033188   0.004543  -0.005407   0.003159  -0.014134   0.020922
     18       0.113505  -0.000495   0.030369  -0.020791  -0.001656   0.001970
     19       0.279679   0.000209  -0.038350  -0.066904  -0.004041  -0.027686
     20       0.020931  -0.004464   0.342151  -0.005768  -0.002893  -0.003375
     21      -0.047319  -0.087952   0.052833   0.424738   0.053116   0.497012
     22      -0.070739   0.111380  -0.068035  -0.247960  -0.048019  -0.295994
     23      -0.013636  -0.978159   0.595508  -0.075303   0.275984  -0.078323
     24      -0.180566   0.001432  -0.000245   0.378889   0.031909  -0.477731
     25      -0.056261  -0.001846  -0.000095  -0.319497  -0.032450   0.285196
     26       0.011099   0.017225  -0.000423  -0.072453   0.089357   0.073711
     27      -0.377738   0.023260   0.010538  -0.293773   0.140000   0.076555
     28       0.023114  -0.008491  -0.004268  -0.065616  -0.065024   0.112312
     29       0.044819   0.009764  -0.002218   0.036362   0.025297  -0.013574
     30      -0.383320  -0.019782  -0.011871  -0.297920  -0.168930   0.088580
     31       0.025700   0.005392   0.004390  -0.057430   0.045351   0.101429
     32       0.027864   0.015057   0.000581   0.000023   0.061527   0.023341
                 18         19         20         21         22         23    
      0       0.000826  -0.012245   0.060630   0.032791  -0.213595  -0.316592
      1       0.225600  -0.021085   0.103484   0.053381  -0.192597  -0.029828
      2       0.025595  -0.001093   0.006545   0.003122  -0.002912   0.024838
      3       0.225067   0.021156  -0.086360   0.058376  -0.493933   0.136197
      4      -0.042733   0.001185  -0.006964  -0.008353  -0.074993   0.016775
      5      -0.024840   0.004726   0.008479  -0.005961   0.036075  -0.010221
      6      -0.055982   0.002279  -0.011157  -0.013701   0.065418   0.061738
      7      -0.032169   0.016554  -0.079870  -0.012682   0.034434  -0.004616
      8       0.001333   0.003044  -0.007771  -0.000235  -0.001913  -0.006009
      9       0.294386  -0.014470   0.032093   0.021594   0.369555   0.025857
     10      -0.117733   0.005628   0.004085   0.098253   0.076928  -0.006041
     11      -0.039646  -0.061723  -0.017727   0.008644  -0.026373  -0.002879
     12      -0.013040  -0.002836   0.010644  -0.012915   0.049009  -0.014908
     13      -0.115688  -0.001384   0.009553  -0.045527  -0.018895  -0.031654
     14      -0.011896  -0.003804  -0.000828  -0.003966  -0.006622  -0.002276
     15      -0.321676   0.015247  -0.004695  -0.070903  -0.193723   0.047863
     16       0.195311  -0.019008   0.015594  -0.141099   0.045305  -0.029375
     17       0.050692   0.135449   0.035709  -0.008904   0.026698  -0.008042
     18      -0.091525   0.016806  -0.083233  -0.030504   0.171519   0.069978
     19      -0.048264   0.007821  -0.038595  -0.016629   0.099644   0.050672
     20       0.002634  -0.001147   0.002871   0.000824  -0.003860  -0.000450
     21      -0.498455  -0.196098   0.932974  -0.010970  -0.050307   0.606275
     22       0.224838  -0.029322   0.146910   0.057375  -0.210981   0.015827
     23       0.070130   0.007836  -0.068613   0.007498  -0.019994  -0.052666
     24      -0.018538  -0.030118   0.068900  -0.608598   0.010591  -0.336311
     25      -0.075230   0.044749  -0.040543   0.342866  -0.106705   0.305857
     26      -0.005752  -0.316294  -0.089270   0.088024  -0.028644   0.069148
     27      -0.370805  -0.542567  -0.125152   0.405150   0.406007  -0.356645
     28       0.074503   0.358001   0.072227   0.182774   0.101620   0.084410
     29       0.096585  -0.083959  -0.003159  -0.154289  -0.005902  -0.075231
     30      -0.386685   0.490411   0.119113   0.449472   0.436822  -0.338202
     31       0.092177  -0.315880  -0.084797   0.132182   0.080511   0.057794
     32      -0.011031  -0.251160  -0.080869   0.116239  -0.054827   0.151991
                 24         25         26         27         28         29    
      0       0.003349   0.040741   0.094186  -0.045600  -0.095798   0.000536
      1       0.000086   0.000036  -0.001507   0.072597  -0.081168   0.000344
      2      -0.000904  -0.003559  -0.008582   0.012249  -0.000702  -0.000011
      3      -0.003650  -0.045184  -0.102299   0.071062  -0.062870  -0.002618
      4       0.000774   0.006723   0.005359  -0.784430   0.044960  -0.002292
      5       0.000918   0.004775   0.009845  -0.094631   0.010667  -0.000023
      6      -0.000719  -0.007950  -0.016283   0.045405   0.650022  -0.000372
      7       0.000037   0.000028   0.000660   0.004394   0.383187  -0.000312
      8      -0.000151   0.000729   0.001521  -0.003477  -0.014055  -0.000003
      9       0.003849   0.030303   0.043772   0.027979   0.015935   0.002849
     10       0.000398   0.019560  -0.007213   0.061064   0.002204  -0.000131
     11       0.013249  -0.001812  -0.004718   0.004337  -0.001148  -0.000254
     12       0.000131   0.002379   0.011843  -0.036799   0.007569  -0.000011
     13      -0.001330  -0.012025  -0.003862   0.486474  -0.031830   0.000967
     14      -0.000449  -0.001533  -0.001546   0.058025  -0.004256   0.000108
     15       0.008476   0.044540   0.076419   0.018500  -0.004213   0.033394
     16      -0.003269   0.028557  -0.048365  -0.019700   0.002267  -0.030708
     17       0.050789  -0.005803  -0.012197  -0.003585   0.000583  -0.007535
     18      -0.000428  -0.005538  -0.014258  -0.032795  -0.528048   0.000292
     19      -0.000381  -0.004521  -0.011132  -0.014131  -0.315459   0.000191
     20       0.000143  -0.000045   0.000016   0.001281   0.010912  -0.000003
     21      -0.006311  -0.074576  -0.161979  -0.151843  -0.156899  -0.000145
     22      -0.000713  -0.006800  -0.017567   0.082457  -0.058838  -0.002128
     23       0.001881   0.005832   0.012597   0.023020   0.007103  -0.000222
     24      -0.100578  -0.407926  -0.202806  -0.163991   0.003160  -0.293391
     25       0.132693   0.413198   0.211131   0.144331  -0.009729  -0.324967
     26      -0.692992   0.166139   0.037359   0.030204  -0.001505  -0.017392
     27       0.424885  -0.189021  -0.475812  -0.124140   0.014214  -0.019706
     28       0.162066  -0.501856   0.371812  -0.027416  -0.000034   0.290131
     29      -0.036365   0.251118  -0.244912  -0.027723   0.007743   0.571171
     30      -0.462650  -0.137570  -0.431634  -0.119121   0.012380  -0.103794
     31      -0.245769  -0.382531   0.286322  -0.037892   0.002111   0.414492
     32      -0.080931  -0.324852   0.403327   0.039562  -0.009590  -0.460974
                 30         31         32    
      0      -0.000017  -0.000049   0.003861
      1       0.000015  -0.000125  -0.086451
      2      -0.000187  -0.000008  -0.010183
      3       0.000059   0.000930  -0.002651
      4      -0.000006  -0.000653   0.001242
      5       0.000342  -0.000174   0.000378
      6      -0.000005   0.000098  -0.001021
      7       0.000003   0.000054   0.000302
      8      -0.000028  -0.000002   0.000127
      9       0.000031   0.000259   0.000082
     10      -0.000054   0.000411  -0.000052
     11       0.000475   0.000038  -0.000014
     12       0.000024  -0.000213  -0.000247
     13      -0.000026   0.000286   0.000642
     14       0.000108   0.000050   0.000094
     15      -0.008707  -0.045722   0.000383
     16       0.011334  -0.083434   0.000172
     17      -0.094440  -0.005689  -0.000011
     18       0.000002  -0.000076   0.002486
     19      -0.000001  -0.000043   0.000858
     20       0.000015   0.000002  -0.000124
     21      -0.000007  -0.000205  -0.034252
     22       0.000059   0.002402   0.988863
     23      -0.000049   0.000297   0.115571
     24       0.008844   0.599838  -0.001810
     25       0.012828   0.669919  -0.002260
     26      -0.013365   0.035778  -0.000140
     27      -0.017232  -0.011822  -0.000284
     28       0.329801   0.123342   0.000525
     29       0.618685   0.264773   0.000617
     30       0.110801  -0.054561  -0.000370
     31      -0.476593   0.196562   0.000667
     32       0.509118  -0.232295  -0.000416


-----------
IR SPECTRUM
-----------

 Mode   freq       eps      Int      T**2         TX        TY        TZ
       cm**-1   L/(mol*cm) km/mol    a.u.
----------------------------------------------------------------------------
  6:     92.38   0.000424    2.14  0.001432  (-0.003444  0.004140 -0.037456)
  7:    130.25   0.000463    2.34  0.001110  ( 0.001679 -0.003920  0.033042)
  8:    134.64   0.000004    0.02  0.000009  (-0.000748  0.002829  0.000303)
  9:    180.00   0.001836    9.28  0.003183  ( 0.005640 -0.005941  0.055824)
 10:    287.28   0.005133   25.94  0.005576  (-0.061633 -0.042155  0.000780)
 11:    399.38   0.001646    8.32  0.001286  ( 0.034372 -0.009393 -0.004068)
 12:    495.61   0.000120    0.61  0.000075  (-0.003705  0.007803  0.000919)
 13:    511.31   0.010652   53.83  0.006501  (-0.007271  0.008770 -0.079822)
 14:    570.47   0.000246    1.24  0.000134  (-0.000873  0.001286 -0.011490)
 15:    747.39   0.003196   16.15  0.001334  ( 0.011887 -0.033622 -0.007910)
 16:    750.68   0.010508   53.10  0.004368  ( 0.006302 -0.008972  0.065178)
 17:    964.00   0.001159    5.85  0.000375  ( 0.003339  0.018983  0.001878)
 18:   1040.02   0.005238   26.47  0.001572  (-0.034652  0.018526  0.005250)
 19:   1166.46   0.001807    9.13  0.000483  ( 0.021144  0.000933  0.005948)
 20:   1167.99   0.022037  111.37  0.005888  (-0.076056 -0.006476  0.007835)
 21:   1198.44   0.000402    2.03  0.000105  (-0.005168 -0.008827 -0.000374)
 22:   1241.44   0.142964  722.48  0.035937  (-0.187602 -0.023090  0.014481)
 23:   1413.23   0.097057  490.49  0.021432  ( 0.143676  0.026247 -0.010005)
 24:   1445.27   0.002649   13.38  0.000572  (-0.008561  0.001380 -0.022286)
 25:   1452.81   0.021639  109.36  0.004648  (-0.066345 -0.014254  0.006575)
 26:   1472.30   0.027005  136.47  0.005724  (-0.074970  0.007199  0.007173)
 27:   1768.60   0.081227  410.49  0.014332  ( 0.045438 -0.109547 -0.016346)
 28:   2264.70   0.170091  859.57  0.023438  ( 0.144236  0.050824 -0.007104)
 29:   3042.09   0.007569   38.25  0.000776  ( 0.026673 -0.007206 -0.003625)
 30:   3130.25   0.004597   23.23  0.000458  (-0.002039  0.002355 -0.021180)
 31:   3170.98   0.002572   13.00  0.000253  (-0.008849 -0.013200 -0.000729)
 32:   3236.19   0.006584   33.27  0.000635  ( 0.005333  0.024510  0.002388)

* The epsilon (eps) is given for a Dirac delta lineshape.
** The dipole moment derivative (T) already includes vibrational overlap.

The first frequency considered to be a vibration is 6
The total number of vibrations considered is 27


--------------------------
THERMOCHEMISTRY AT 298.15K
--------------------------

Temperature         ... 298.15 K
Pressure            ... 1.00 atm
Total Mass          ... 100.08 AMU

Throughout the following assumptions are being made:
  (1) The electronic state is orbitally nondegenerate
  (2) There are no thermally accessible electronically excited states
  (3) Hindered rotations indicated by low frequency modes are not
      treated as such but are treated as vibrations and this may
      cause some error
  (4) All equations used are the standard statistical mechanics
      equations for an ideal gas
  (5) All vibrations are strictly harmonic

freq.      92.38  E(vib)   ...       0.47 
freq.     130.25  E(vib)   ...       0.43 
freq.     134.64  E(vib)   ...       0.42 
freq.     180.00  E(vib)   ...       0.37 
freq.     287.28  E(vib)   ...       0.27 
freq.     399.38  E(vib)   ...       0.19 
freq.     495.61  E(vib)   ...       0.14 
freq.     511.31  E(vib)   ...       0.14 
freq.     570.47  E(vib)   ...       0.11 
freq.     747.39  E(vib)   ...       0.06 
freq.     750.68  E(vib)   ...       0.06 
freq.     964.00  E(vib)   ...       0.03 
freq.    1040.02  E(vib)   ...       0.02 
freq.    1166.46  E(vib)   ...       0.01 
freq.    1167.99  E(vib)   ...       0.01 
freq.    1198.44  E(vib)   ...       0.01 
freq.    1241.44  E(vib)   ...       0.01 
freq.    1413.23  E(vib)   ...       0.00 
freq.    1445.27  E(vib)   ...       0.00 
freq.    1452.81  E(vib)   ...       0.00 
freq.    1472.30  E(vib)   ...       0.00 
freq.    1768.60  E(vib)   ...       0.00 
freq.    2264.70  E(vib)   ...       0.00 
freq.    3042.09  E(vib)   ...       0.00 
freq.    3130.25  E(vib)   ...       0.00 
freq.    3170.98  E(vib)   ...       0.00 
freq.    3236.19  E(vib)   ...       0.00 

------------
INNER ENERGY
------------

The inner energy is: U= E(el) + E(ZPE) + E(vib) + E(rot) + E(trans)
    E(el)   - is the total energy from the electronic structure calculation
              = E(kin-el) + E(nuc-el) + E(el-el) + E(nuc-nuc)
    E(ZPE)  - the the zero temperature vibrational energy from the frequency calculation
    E(vib)  - the the finite temperature correction to E(ZPE) due to population
              of excited vibrational states
    E(rot)  - is the rotational thermal energy
    E(trans)- is the translational thermal energy

Summary of contributions to the inner energy U:
Electronic energy                ...   -376.17485461 Eh
Zero point energy                ...      0.07625974 Eh      47.85 kcal/mol
Thermal vibrational correction   ...      0.00441600 Eh       2.77 kcal/mol
Thermal rotational correction    ...      0.00141627 Eh       0.89 kcal/mol
Thermal translational correction ...      0.00141627 Eh       0.89 kcal/mol
-----------------------------------------------------------------------
Total thermal energy                   -376.09134632 Eh


Summary of corrections to the electronic energy:
(perhaps to be used in another calculation)
Total thermal correction                  0.00724855 Eh       4.55 kcal/mol
Non-thermal (ZPE) correction              0.07625974 Eh      47.85 kcal/mol
-----------------------------------------------------------------------
Total correction                          0.08350829 Eh      52.40 kcal/mol


--------
ENTHALPY
--------

The enthalpy is H = U + kB*T
                kB is Boltzmann's constant
Total free energy                 ...   -376.09134632 Eh 
Thermal Enthalpy correction       ...      0.00094421 Eh       0.59 kcal/mol
-----------------------------------------------------------------------
Total Enthalpy                    ...   -376.09040211 Eh


Note: Only C1 symmetry has been detected, increase convergence thresholds 
      if your molecule has a higher symmetry. Symmetry factor of 1.0 is   
      used for the rotational entropy correction. 
 

Note: Rotational entropy computed according to Herzberg 
Infrared and Raman Spectra, Chapter V,1, Van Nostrand Reinhold, 1945 
Point Group:  C1, Symmetry Number:   1  
Rotational constants in cm-1:     0.338507     0.048527     0.042791 

Vibrational entropy computed according to the QRRHO of S. Grimme
Chem.Eur.J. 2012 18 9955


-------
ENTROPY
-------

The entropy contributions are T*S = T*(S(el)+S(vib)+S(rot)+S(trans))
     S(el)   - electronic entropy
     S(vib)  - vibrational entropy
     S(rot)  - rotational entropy
     S(trans)- translational entropy
The entropies will be listed as multiplied by the temperature to get
units of energy

Electronic entropy                ...      0.00000000 Eh      0.00 kcal/mol
Vibrational entropy               ...      0.00778958 Eh      4.89 kcal/mol
Rotational entropy                ...      0.01293831 Eh      8.12 kcal/mol
Translational entropy             ...      0.01887233 Eh     11.84 kcal/mol
-----------------------------------------------------------------------
Final entropy term                ...      0.03960022 Eh     24.85 kcal/mol

In case the symmetry of your molecule has not been determined correctly
or in case you have a reason to use a different symmetry number we print 
out the resulting rotational entropy values for sn=1,12 :
 --------------------------------------------------------
|  sn= 1 | S(rot)=       0.01293831 Eh      8.12 kcal/mol|
|  sn= 2 | S(rot)=       0.01228385 Eh      7.71 kcal/mol|
|  sn= 3 | S(rot)=       0.01190102 Eh      7.47 kcal/mol|
|  sn= 4 | S(rot)=       0.01162940 Eh      7.30 kcal/mol|
|  sn= 5 | S(rot)=       0.01141871 Eh      7.17 kcal/mol|
|  sn= 6 | S(rot)=       0.01124656 Eh      7.06 kcal/mol|
|  sn= 7 | S(rot)=       0.01110102 Eh      6.97 kcal/mol|
|  sn= 8 | S(rot)=       0.01097494 Eh      6.89 kcal/mol|
|  sn= 9 | S(rot)=       0.01086373 Eh      6.82 kcal/mol|
|  sn=10 | S(rot)=       0.01076425 Eh      6.75 kcal/mol|
|  sn=11 | S(rot)=       0.01067426 Eh      6.70 kcal/mol|
|  sn=12 | S(rot)=       0.01059211 Eh      6.65 kcal/mol|
 --------------------------------------------------------


-------------------
GIBBS FREE ENERGY
-------------------

The Gibbs free energy is G = H - T*S

Total enthalpy                    ...   -376.09040211 Eh 
Total entropy correction          ...     -0.03960022 Eh    -24.85 kcal/mol
-----------------------------------------------------------------------
Final Gibbs free energy         ...   -376.13000233 Eh

For completeness - the Gibbs free energy minus the electronic energy
G-E(el)                           ...      0.04485228 Eh     28.15 kcal/mol


Timings for individual modules:

Sum of individual times         ...     1104.424 sec (=  18.407 min)
GTO integral calculation        ...        5.656 sec (=   0.094 min)   0.5 %
SCF iterations                  ...      609.230 sec (=  10.154 min)  55.2 %
SCF Gradient evaluation         ...      196.612 sec (=   3.277 min)  17.8 %
Geometry relaxation             ...        2.750 sec (=   0.046 min)   0.2 %
Analytical frequency calculation...      290.176 sec (=   4.836 min)  26.3 %
                             ****ORCA TERMINATED NORMALLY****
TOTAL RUN TIME: 0 days 0 hours 18 minutes 30 seconds 927 msec
