
                                 *****************
                                 * O   R   C   A *
                                 *****************

                                            #,                                       
                                            ###                                      
                                            ####                                     
                                            #####                                    
                                            ######                                   
                                           ########,                                 
                                     ,,################,,,,,                         
                               ,,#################################,,                 
                          ,,##########################################,,             
                       ,#########################################, ''#####,          
                    ,#############################################,,   '####,        
                  ,##################################################,,,,####,       
                ,###########''''           ''''###############################       
              ,#####''   ,,,,##########,,,,          '''####'''          '####       
            ,##' ,,,,###########################,,,                        '##       
           ' ,,###''''                  '''############,,,                           
         ,,##''                                '''############,,,,        ,,,,,,###''
      ,#''                                            '''#######################'''  
     '                                                          ''''####''''         
             ,#######,   #######,   ,#######,      ##                                
            ,#'     '#,  ##    ##  ,#'     '#,    #''#        ######   ,####,        
            ##       ##  ##   ,#'  ##            #'  '#       #        #'  '#        
            ##       ##  #######   ##           ,######,      #####,   #    #        
            '#,     ,#'  ##    ##  '#,     ,#' ,#      #,         ##   #,  ,#        
             '#######'   ##     ##  '#######'  #'      '#     #####' # '####'        



                  #######################################################
                  #                        -***-                        #
                  #          Department of theory and spectroscopy      #
                  #    Directorship and core code : Frank Neese         #
                  #        Max Planck Institute fuer Kohlenforschung    #
                  #                Kaiser Wilhelm Platz 1               #
                  #                 D-45470 Muelheim/Ruhr               #
                  #                      Germany                        #
                  #                                                     #
                  #                  All rights reserved                #
                  #                        -***-                        #
                  #######################################################


                         Program Version 5.0.3 -  RELEASE  -


 With contributions from (in alphabetic order):
   Daniel Aravena         : Magnetic Suceptibility
   Michael Atanasov       : Ab Initio Ligand Field Theory (pilot matlab implementation)
   Alexander A. Auer      : GIAO ZORA, VPT2 properties, NMR spectrum
   Ute Becker             : Parallelization
   Giovanni Bistoni       : ED, misc. LED, open-shell LED, HFLD
   Martin Brehm           : Molecular dynamics
   Dmytro Bykov           : SCF Hessian
   Vijay G. Chilkuri      : MRCI spin determinant printing, contributions to CSF-ICE
   Dipayan Datta          : RHF DLPNO-CCSD density
   Achintya Kumar Dutta   : EOM-CC, STEOM-CC
   Dmitry Ganyushin       : Spin-Orbit,Spin-Spin,Magnetic field MRCI
   Miquel Garcia          : C-PCM and meta-GGA Hessian, CC/C-PCM, Gaussian charge scheme
   Yang Guo               : DLPNO-NEVPT2, F12-NEVPT2, CIM, IAO-localization
   Andreas Hansen         : Spin unrestricted coupled pair/coupled cluster methods
   Benjamin Helmich-Paris : MC-RPA, TRAH-SCF, COSX integrals
   Lee Huntington         : MR-EOM, pCC
   Robert Izsak           : Overlap fitted RIJCOSX, COSX-SCS-MP3, EOM
   Marcus Kettner         : VPT2
   Christian Kollmar      : KDIIS, OOCD, Brueckner-CCSD(T), CCSD density, CASPT2, CASPT2-K
   Simone Kossmann        : Meta GGA functionals, TD-DFT gradient, OOMP2, MP2 Hessian
   Martin Krupicka        : Initial AUTO-CI
   Lucas Lang             : DCDCAS
   Marvin Lechner         : AUTO-CI (C++ implementation), FIC-MRCC
   Dagmar Lenk            : GEPOL surface, SMD
   Dimitrios Liakos       : Extrapolation schemes; Compound Job, initial MDCI parallelization
   Dimitrios Manganas     : Further ROCIS development; embedding schemes
   Dimitrios Pantazis     : SARC Basis sets
   Anastasios Papadopoulos: AUTO-CI, single reference methods and gradients
   Taras Petrenko         : DFT Hessian,TD-DFT gradient, ASA, ECA, R-Raman, ABS, FL, XAS/XES, NRVS
   Peter Pinski           : DLPNO-MP2, DLPNO-MP2 Gradient
   Christoph Reimann      : Effective Core Potentials
   Marius Retegan         : Local ZFS, SOC
   Christoph Riplinger    : Optimizer, TS searches, QM/MM, DLPNO-CCSD(T), (RO)-DLPNO pert. Triples
   Tobias Risthaus        : Range-separated hybrids, TD-DFT gradient, RPA, STAB
   Michael Roemelt        : Original ROCIS implementation
   Masaaki Saitow         : Open-shell DLPNO-CCSD energy and density
   Barbara Sandhoefer     : DKH picture change effects
   Avijit Sen             : IP-ROCIS
   Kantharuban Sivalingam : CASSCF convergence, NEVPT2, FIC-MRCI
   Bernardo de Souza      : ESD, SOC TD-DFT
   Georgi Stoychev        : AutoAux, RI-MP2 NMR, DLPNO-MP2 response
   Willem Van den Heuvel  : Paramagnetic NMR
   Boris Wezisla          : Elementary symmetry handling
   Frank Wennmohs         : Technical directorship


 We gratefully acknowledge several colleagues who have allowed us to
 interface, adapt or use parts of their codes:
   Stefan Grimme, W. Hujo, H. Kruse, P. Pracht,  : VdW corrections, initial TS optimization,
                  C. Bannwarth, S. Ehlert          DFT functionals, gCP, sTDA/sTD-DF
   Ed Valeev, F. Pavosevic, A. Kumar             : LibInt (2-el integral package), F12 methods
   Garnet Chan, S. Sharma, J. Yang, R. Olivares  : DMRG
   Ulf Ekstrom                                   : XCFun DFT Library
   Mihaly Kallay                                 : mrcc  (arbitrary order and MRCC methods)
   Jiri Pittner, Ondrej Demel                    : Mk-CCSD
   Frank Weinhold                                : gennbo (NPA and NBO analysis)
   Christopher J. Cramer and Donald G. Truhlar   : smd solvation model
   Lars Goerigk                                  : TD-DFT with DH, B97 family of functionals
   V. Asgeirsson, H. Jonsson                     : NEB implementation
   FAccTs GmbH                                   : IRC, NEB, NEB-TS, DLPNO-Multilevel, CI-OPT
                                                   MM, QMMM, 2- and 3-layer-ONIOM, Crystal-QMMM,
                                                   LR-CPCM, SF, NACMEs, symmetry and pop. for TD-DFT,
                                                   nearIR, NL-DFT gradient (VV10), updates on ESD,
                                                   ML-optimized integration grids
   S Lehtola, MJT Oliveira, MAL Marques          : LibXC Library
   Liviu Ungur et al                             : ANISO software


 Your calculation uses the libint2 library for the computation of 2-el integrals
 For citations please refer to: http://libint.valeyev.net

 Your ORCA version has been built with support for libXC version: 5.1.0
 For citations please refer to: https://tddft.org/programs/libxc/

 This ORCA versions uses:
   CBLAS   interface :  Fast vector & matrix operations
   LAPACKE interface :  Fast linear algebra routines
   SCALAPACK package :  Parallel linear algebra routines
   Shared memory     :  Shared parallel matrices


Your calculation utilizes the atom-pairwise dispersion correction
with the Becke-Johnson damping scheme (D3BJ)
Cite in your paper:
S.Grimme, S.Ehrlich, L.Goerigk, J Comput Chem, (2011), 32, 1456–1465 
S.Grimme, J.Antony, S.Ehrlich and H.Krieg, J.Chem.Phys., 132, (2010), 154104 
   

================================================================================

----- Orbital basis set information -----
Your calculation utilizes the basis: def2-TZVP
   F. Weigend and R. Ahlrichs, Phys. Chem. Chem. Phys. 7, 3297 (2005).

----- AuxJ basis set information -----
Your calculation utilizes the auxiliary basis: def2/J
   F. Weigend, Phys. Chem. Chem. Phys. 8, 1057 (2006).

================================================================================
                                        WARNINGS
                       Please study these warnings very carefully!
================================================================================


INFO   : the flag for use of the SHARK integral package has been found!

================================================================================
                                       INPUT FILE
================================================================================
NAME = ketone_c02_sp.inp
|  1> ! b3lyp d3bj def2-tzvp tightscf cpcm(CH2Cl2) printBasis
|  2> %MaxCore 1000
|  3> %pal nprocs 1 end
|  4> %scf print[p_mos] 1 end
|  5> 
|  6> *xyz 0 1
|  7> C    -0.266756  -0.760409  -0.016799
|  8> H    -1.291107  -0.385075   0.009145
|  9> C     0.891270   0.129057   0.084291
| 10> N    -0.117944  -2.053663  -0.142278
| 11> N     0.041335  -3.170717  -0.248746
| 12> C     2.269574  -0.499997   0.040896
| 13> O     0.723905   1.335673   0.202047
| 14> H     2.406199  -1.086039  -0.882777
| 15> H     3.025934   0.293786   0.088689
| 16> H     2.407114  -1.189271   0.890640
| 17> *
| 18> 
| 19> 
| 20> 
| 21> 
| 22> 
| 23>                          ****END OF INPUT****
================================================================================

                       ****************************
                       * Single Point Calculation *
                       ****************************

---------------------------------
CARTESIAN COORDINATES (ANGSTROEM)
---------------------------------
  C     -0.266756   -0.760409   -0.016799
  H     -1.291107   -0.385075    0.009145
  C      0.891270    0.129057    0.084291
  N     -0.117944   -2.053663   -0.142278
  N      0.041335   -3.170717   -0.248746
  C      2.269574   -0.499997    0.040896
  O      0.723905    1.335673    0.202047
  H      2.406199   -1.086039   -0.882777
  H      3.025934    0.293786    0.088689
  H      2.407114   -1.189271    0.890640

----------------------------
CARTESIAN COORDINATES (A.U.)
----------------------------
  NO LB      ZA    FRAG     MASS         X           Y           Z
   0 C     6.0000    0    12.011   -0.504096   -1.436965   -0.031746
   1 H     1.0000    0     1.008   -2.439839   -0.727686    0.017282
   2 C     6.0000    0    12.011    1.684256    0.243882    0.159287
   3 N     7.0000    0    14.007   -0.222882   -3.880861   -0.268866
   4 N     7.0000    0    14.007    0.078112   -5.991787   -0.470062
   5 C     6.0000    0    12.011    4.288873   -0.944857    0.077282
   6 O     8.0000    0    15.999    1.367982    2.524056    0.381813
   7 H     1.0000    0     1.008    4.547057   -2.052316   -1.668207
   8 H     1.0000    0     1.008    5.718187    0.555175    0.167598
   9 H     1.0000    0     1.008    4.548786   -2.247396    1.683066

--------------------------------
INTERNAL COORDINATES (ANGSTROEM)
--------------------------------
 C      0   0   0     0.000000000000     0.00000000     0.00000000
 H      1   0   0     1.091257840244     0.00000000     0.00000000
 C      1   2   0     1.463691623919   122.14113660     0.00000000
 N      1   2   3     1.307821050183   116.69275446   179.93856347
 N      4   1   2     1.133364404674   178.45171917   182.95605862
 C      3   1   2     1.515689274672   117.72771600   179.83741927
 O      3   1   2     1.223846269029   119.84013714     0.00000000
 H      6   3   1     1.102398941998   110.93576154    57.09532375
 H      6   3   1     1.097477139415   108.98274887   177.86322550
 H      6   3   1     1.102760519883   110.53427421   298.15503687

---------------------------
INTERNAL COORDINATES (A.U.)
---------------------------
 C      0   0   0     0.000000000000     0.00000000     0.00000000
 H      1   0   0     2.062178459555     0.00000000     0.00000000
 C      1   2   0     2.765976313722   122.14113660     0.00000000
 N      1   2   3     2.471423617023   116.69275446   179.93856347
 N      4   1   2     2.141748334768   178.45171917   182.95605862
 C      3   1   2     2.864237633253   117.72771600   179.83741927
 O      3   1   2     2.312734278487   119.84013714     0.00000000
 H      6   3   1     2.083232090700   110.93576154    57.09532375
 H      6   3   1     2.073931231733   108.98274887   177.86322550
 H      6   3   1     2.083915373879   110.53427421   298.15503687

---------------------
BASIS SET INFORMATION
---------------------
There are 4 groups of distinct atoms

 Group   1 Type C   : 11s6p2d1f contracted to 5s3p2d1f pattern {62111/411/11/1}
 Group   2 Type H   : 5s1p contracted to 3s1p pattern {311/1}
 Group   3 Type N   : 11s6p2d1f contracted to 5s3p2d1f pattern {62111/411/11/1}
 Group   4 Type O   : 11s6p2d1f contracted to 5s3p2d1f pattern {62111/411/11/1}

Atom   0C    basis set group =>   1
Atom   1H    basis set group =>   2
Atom   2C    basis set group =>   1
Atom   3N    basis set group =>   3
Atom   4N    basis set group =>   3
Atom   5C    basis set group =>   1
Atom   6O    basis set group =>   4
Atom   7H    basis set group =>   2
Atom   8H    basis set group =>   2
Atom   9H    basis set group =>   2

-------------------------
BASIS SET IN INPUT FORMAT
-------------------------

 # Basis set for element : H 
 NewGTO H 
 S 3 
   1      34.0613410000      0.0254393072
   2       5.1235746000      0.1900859489
   3       1.1646626000      0.8524411301
 S 1 
   1       0.3272304100      1.0000000000
 S 1 
   1       0.1030724100      1.0000000000
 P 1 
   1       0.8000000000      1.0000000000
  end;

 # Basis set for element : C 
 NewGTO C 
 S 6 
   1   13575.3496820000      0.0006064549
   2    2035.2333680000      0.0046979088
   3     463.2256235900      0.0243324776
   4     131.2001959800      0.0973999683
   5      42.8530158910      0.3019558425
   6      15.5841857660      0.6623360915
 S 2 
   1       6.2067138508      0.6559530854
   2       2.5764896527      0.3758563329
 S 1 
   1       0.5769633942      1.0000000000
 S 1 
   1       0.2297283136      1.0000000000
 S 1 
   1       0.0951644400      1.0000000000
 P 4 
   1      34.6972322440      0.0113272200
   2       7.9582622826      0.0761696592
   3       2.3780826883      0.3019225220
   4       0.8143320818      0.7278502735
 P 1 
   1       0.2888754725      1.0000000000
 P 1 
   1       0.1005682367      1.0000000000
 D 1 
   1       1.0970000000      1.0000000000
 D 1 
   1       0.3180000000      1.0000000000
 F 1 
   1       0.7610000000      1.0000000000
  end;

 # Basis set for element : N 
 NewGTO N 
 S 6 
   1   19730.8006470000      0.0005862639
   2    2957.8958745000      0.0045428821
   3     673.2213359500      0.0235584136
   4     190.6824949400      0.0947091933
   5      62.2954418980      0.2971978492
   6      22.6541611820      0.6691624689
 S 2 
   1       8.9791477428      0.6459668363
   2       3.6863002370      0.3870057440
 S 1 
   1       0.8466007680      1.0000000000
 S 1 
   1       0.3364713377      1.0000000000
 S 1 
   1       0.1364765367      1.0000000000
 P 4 
   1      49.2003805100      0.0114488252
   2      11.3467905370      0.0784223379
   3       3.4273972411      0.3081809474
   4       1.1785525134      0.7202719637
 P 1 
   1       0.4164220497      1.0000000000
 P 1 
   1       0.1426082601      1.0000000000
 D 1 
   1       1.6540000000      1.0000000000
 D 1 
   1       0.4690000000      1.0000000000
 F 1 
   1       1.0930000000      1.0000000000
  end;

 # Basis set for element : O 
 NewGTO O 
 S 6 
   1   27032.3826310000      0.0005722733
   2    4052.3871392000      0.0044353233
   3     922.3272271000      0.0230201076
   4     261.2407098900      0.0928224906
   5      85.3546413510      0.2937850002
   6      31.0350352450      0.6740160450
 S 2 
   1      12.2608607280      0.6383993702
   2       4.9987076005      0.3953458713
 S 1 
   1       1.1703108158      1.0000000000
 S 1 
   1       0.4647474099      1.0000000000
 S 1 
   1       0.1850453636      1.0000000000
 P 4 
   1      63.2749548010      0.0120183321
   2      14.6270493790      0.0830054217
   3       4.4501223456      0.3199174393
   4       1.5275799647      0.7071554292
 P 1 
   1       0.5293511794      1.0000000000
 P 1 
   1       0.1747842127      1.0000000000
 D 1 
   1       2.3140000000      1.0000000000
 D 1 
   1       0.6450000000      1.0000000000
 F 1 
   1       1.4280000000      1.0000000000
  end;

---------------------------------
AUXILIARY/J BASIS SET INFORMATION
---------------------------------
There are 4 groups of distinct atoms

 Group   1 Type C   : 12s5p4d2f1g contracted to 6s4p3d1f1g pattern {711111/2111/211/2/1}
 Group   2 Type H   : 5s2p1d contracted to 3s1p1d pattern {311/2/1}
 Group   3 Type N   : 12s5p4d2f1g contracted to 6s4p3d1f1g pattern {711111/2111/211/2/1}
 Group   4 Type O   : 12s5p4d2f1g contracted to 6s4p3d1f1g pattern {711111/2111/211/2/1}

Atom   0C    basis set group =>   1
Atom   1H    basis set group =>   2
Atom   2C    basis set group =>   1
Atom   3N    basis set group =>   3
Atom   4N    basis set group =>   3
Atom   5C    basis set group =>   1
Atom   6O    basis set group =>   4
Atom   7H    basis set group =>   2
Atom   8H    basis set group =>   2
Atom   9H    basis set group =>   2

-------------------------------------
AUXILIARY/J BASIS SET IN INPUT FORMAT
-------------------------------------

 # Auxiliary/J basis set for element : H 
 NewAuxJGTO H 
 S 3 
   1      15.6752927000      0.1007184237
   2       3.6063578000      0.3404257499
   3       1.2080016000      0.6491996172
 S 1 
   1       0.4726794000      1.0000000000
 S 1 
   1       0.2018100000      1.0000000000
 P 2 
   1       2.0281365000      0.5596620919
   2       0.5358730000      0.5596620919
 D 1 
   1       2.2165124000      1.0000000000
  end;

 # Auxiliary/J basis set for element : C 
 NewAuxJGTO C 
 S 7 
   1    1861.0916331000      0.0134602335
   2     642.9939764000      0.0299160374
   3     235.1105725000      0.1008649584
   4      90.7028894000      0.2370970548
   5      36.7794552000      0.3924037254
   6      15.6046273000      0.3195862154
   7       6.8907294000      0.0530104441
 S 1 
   1       3.1478850000     -1.0000000000
 S 1 
   1       1.4777287000      1.0000000000
 S 1 
   1       0.7076466000      1.0000000000
 S 1 
   1       0.3430122000      1.0000000000
 S 1 
   1       0.1669453000      1.0000000000
 P 2 
   1      13.5472892000     -0.6769313712
   2       5.4669419000     -0.3779500978
 P 1 
   1       2.1751721000      1.0000000000
 P 1 
   1       0.8582194000      1.0000000000
 P 1 
   1       0.3376720000      1.0000000000
 D 2 
   1       5.9287253000     -0.3533329857
   2       1.9809209000     -0.7456525731
 D 1 
   1       0.8055417000     -1.0000000000
 D 1 
   1       0.3531244000     -1.0000000000
 F 2 
   1       1.6755626000      0.6311076882
   2       0.5997536000      0.4968166032
 G 1 
   1       1.0024600000     -1.0000000000
  end;

 # Auxiliary/J basis set for element : N 
 NewAuxJGTO N 
 S 7 
   1    2542.9401785000      0.0128431329
   2    1029.5472946000      0.0206655120
   3     424.9053546000      0.0652200677
   4     178.4573708000      0.1617388940
   5      76.1362742000      0.3094256941
   6      32.9338653000      0.3918849307
   7      14.4155436000      0.1822470660
 S 1 
   1       6.3718891000     -1.0000000000
 S 1 
   1       2.8381742000      1.0000000000
 S 1 
   1       1.2711793000      1.0000000000
 S 1 
   1       0.5712407000      1.0000000000
 S 1 
   1       0.2569887000      1.0000000000
 P 2 
   1      17.8975990000     -1.0974070137
   2       6.5346319000      0.1380055963
 P 1 
   1       2.3523645000      1.0000000000
 P 1 
   1       0.8397377000      1.0000000000
 P 1 
   1       0.2989335000      1.0000000000
 D 2 
   1       7.6909870000      0.1770780943
   2       2.3044972000      0.8918319220
 D 1 
   1       0.8403987000      1.0000000000
 D 1 
   1       0.3303797000      1.0000000000
 F 2 
   1       2.3331076000      0.6223178877
   2       0.8446137000      0.5036714203
 G 1 
   1       1.4037700000     -1.0000000000
  end;

 # Auxiliary/J basis set for element : O 
 NewAuxJGTO O 
 S 7 
   1    2876.8216605000      0.0168151159
   2    1004.7443032000      0.0340137548
   3     369.7579954000      0.1194951309
   4     142.9442404000      0.2664627624
   5      57.8366425000      0.4202764046
   6      24.3864983000      0.2765077335
   7      10.6622662000      0.0057008815
 S 1 
   1       4.8070437000     -1.0000000000
 S 1 
   1       2.2210770000      1.0000000000
 S 1 
   1       1.0447795000      1.0000000000
 S 1 
   1       0.4968425000      1.0000000000
 S 1 
   1       0.2371384000      1.0000000000
 P 2 
   1      64.2613382000     -0.2731534179
   2      16.3006076000     -0.8168011598
 P 1 
   1       4.3550542000      1.0000000000
 P 1 
   1       1.2019554000      1.0000000000
 P 1 
   1       0.3354196000      1.0000000000
 D 2 
   1       9.2146611000     -0.4661230638
   2       2.8435251000     -0.6600908911
 D 1 
   1       0.9955759000     -1.0000000000
 D 1 
   1       0.3649441000     -1.0000000000
 F 2 
   1       2.6420115000      0.5931563945
   2       0.7345613000      0.5931563945
 G 1 
   1       1.3931000000     -1.0000000000
  end;

------------------------------------------------------------------------------
                           ORCA GTO INTEGRAL CALCULATION
                           -- RI-GTO INTEGRALS CHOSEN --
------------------------------------------------------------------------------
------------------------------------------------------------------------------
                   ___                                                        
                  /   \      - P O W E R E D   B Y -                         
                 /     \                                                     
                 |  |  |   _    _      __       _____    __    __             
                 |  |  |  | |  | |    /  \     |  _  \  |  |  /  |          
                  \  \/   | |  | |   /    \    | | | |  |  | /  /          
                 / \  \   | |__| |  /  /\  \   | |_| |  |  |/  /          
                |  |  |   |  __  | /  /__\  \  |    /   |      \           
                |  |  |   | |  | | |   __   |  |    \   |  |\   \          
                \     /   | |  | | |  |  |  |  | |\  \  |  | \   \       
                 \___/    |_|  |_| |__|  |__|  |_| \__\ |__|  \__/        
                                                                              
                      - O R C A' S   B I G   F R I E N D -                    
                                      &                                       
                       - I N T E G R A L  F E E D E R -                       
                                                                              
 v1 FN, 2020, v2 2021                                                         
------------------------------------------------------------------------------


Reading SHARK input file ketone_c02_sp.SHARKINP.tmp ... ok
----------------------
SHARK INTEGRAL PACKAGE
----------------------

Number of atoms                             ...     10
Number of basis functions                   ...    210
Number of shells                            ...     82
Maximum angular momentum                    ...      3
Integral batch strategy                     ... SHARK/LIBINT Hybrid
RI-J (if used) integral strategy            ... SPLIT-RIJ (Revised 2003 algorithm where possible)
Printlevel                                  ...      1
Contraction scheme used                     ... SEGMENTED contraction
Coulomb Range Separation                    ... NOT USED
Exchange Range Separation                   ... NOT USED
Finite Nucleus Model                        ... NOT USED
Auxiliary Coulomb fitting basis             ... AVAILABLE
   # of basis functions in Aux-J            ...    338
   # of shells in Aux-J                     ...    110
   Maximum angular momentum in Aux-J        ...      4
Auxiliary J/K fitting basis                 ... NOT available
Auxiliary Correlation fitting basis         ... NOT available
Auxiliary 'external' fitting basis          ... NOT available
Integral threshold                          ...     2.500000e-11
Primitive cut-off                           ...     2.500000e-12
Primitive pair pre-selection threshold      ...     2.500000e-12

Calculating pre-screening integrals         ... done (  0.0 sec) Dimension = 82
Organizing shell pair data                  ... done (  0.0 sec)
Shell pair information
Total number of shell pairs                 ...      3403
Shell pairs after pre-screening             ...      3212
Total number of primitive shell pairs       ...     10584
Primitive shell pairs kept                  ...      7720
          la=0 lb=0:    812 shell pairs
          la=1 lb=0:    887 shell pairs
          la=1 lb=1:    251 shell pairs
          la=2 lb=0:    473 shell pairs
          la=2 lb=1:    259 shell pairs
          la=2 lb=2:     75 shell pairs
          la=3 lb=0:    236 shell pairs
          la=3 lb=1:    129 shell pairs
          la=3 lb=2:     70 shell pairs
          la=3 lb=3:     20 shell pairs

Calculating one electron integrals          ... done (  0.0 sec)
Calculating RI/J V-Matrix + Cholesky decomp.... done (  0.0 sec)
Calculating Nuclear repulsion               ... done (  0.0 sec) ENN=    207.357757584370 Eh

SHARK setup successfully completed in   0.2 seconds

Maximum memory used throughout the entire GTOINT-calculation: 53.3 MB
-------------------------------------------------------------------------------
                                 ORCA SCF
-------------------------------------------------------------------------------

------------
SCF SETTINGS
------------
Hamiltonian:
 Density Functional     Method          .... DFT(GTOs)
 Exchange Functional    Exchange        .... B88
   X-Alpha parameter    XAlpha          ....  0.666667
   Becke's b parameter  XBeta           ....  0.004200
 Correlation Functional Correlation     .... LYP
 LDA part of GGA corr.  LDAOpt          .... VWN-5
 Gradients option       PostSCFGGA      .... off
 Hybrid DFT is turned on
   Fraction HF Exchange ScalHFX         ....  0.200000
   Scaling of DF-GGA-X  ScalDFX         ....  0.720000
   Scaling of DF-GGA-C  ScalDFC         ....  0.810000
   Scaling of DF-LDA-C  ScalLDAC        ....  1.000000
   Perturbative correction              ....  0.000000
   Density functional embedding theory  .... OFF
   NL short-range parameter             ....  4.800000
 RI-approximation to the Coulomb term is turned on
   Number of AuxJ basis functions       .... 338
   RIJ-COSX (HFX calculated with COS-X)).... on


General Settings:
 Integral files         IntName         .... ketone_c02_sp
 Hartree-Fock type      HFTyp           .... RHF
 Total Charge           Charge          ....    0
 Multiplicity           Mult            ....    1
 Number of Electrons    NEL             ....   44
 Basis Dimension        Dim             ....  210
 Nuclear Repulsion      ENuc            ....    207.3577575844 Eh

Convergence Acceleration:
 DIIS                   CNVDIIS         .... on
   Start iteration      DIISMaxIt       ....    12
   Startup error        DIISStart       ....  0.200000
   # of expansion vecs  DIISMaxEq       ....     5
   Bias factor          DIISBfac        ....   1.050
   Max. coefficient     DIISMaxC        ....  10.000
 Trust-Rad. Augm. Hess. CNVTRAH         .... auto
   Auto Start mean grad. ratio tolernc. ....  1.125000
   Auto Start start iteration           ....    20
   Auto Start num. interpolation iter.  ....    10
   Max. Number of Micro iterations      ....    16
   Max. Number of Macro iterations      .... Maxiter - #DIIS iter
   Number of Davidson start vectors     ....     2
   Converg. threshold I  (grad. norm)   ....   1.000e-05
   Converg. threshold II (energy diff.) ....   1.000e-08
   Grad. Scal. Fac. for Micro threshold ....   0.100
   Minimum threshold for Micro iter.    ....   0.010
   NR start threshold (gradient norm)   ....   0.001
   Initial trust radius                 ....   0.400
   Minimum AH scaling param. (alpha)    ....   1.000
   Maximum AH scaling param. (alpha)    .... 1000.000
   Orbital update algorithm             .... Taylor
   White noise on init. David. guess    .... on
   Maximum white noise                  ....   0.010
   Quad. conv. algorithm                .... NR
 SOSCF                  CNVSOSCF        .... on
   Start iteration      SOSCFMaxIt      ....   150
   Startup grad/error   SOSCFStart      ....  0.003300
 Level Shifting         CNVShift        .... on
   Level shift para.    LevelShift      ....    0.2500
   Turn off err/grad.   ShiftErr        ....    0.0010
 Zerner damping         CNVZerner       .... off
 Static damping         CNVDamp         .... on
   Fraction old density DampFac         ....    0.7000
   Max. Damping (<1)    DampMax         ....    0.9800
   Min. Damping (>=0)   DampMin         ....    0.0000
   Turn off err/grad.   DampErr         ....    0.1000
 Fernandez-Rico         CNVRico         .... off

SCF Procedure:
 Maximum # iterations   MaxIter         ....   125
 SCF integral mode      SCFMode         .... Direct
   Integral package                     .... SHARK and LIBINT hybrid scheme
 Reset frequency        DirectResetFreq ....    20
 Integral Threshold     Thresh          ....  2.500e-11 Eh
 Primitive CutOff       TCut            ....  2.500e-12 Eh

Convergence Tolerance:
 Convergence Check Mode ConvCheckMode   .... Total+1el-Energy
 Convergence forced     ConvForced      .... 0
 Energy Change          TolE            ....  1.000e-08 Eh
 1-El. energy change                    ....  1.000e-05 Eh
 Orbital Gradient       TolG            ....  1.000e-05
 Orbital Rotation angle TolX            ....  1.000e-05
 DIIS Error             TolErr          ....  5.000e-07


Diagonalization of the overlap matrix:
Smallest eigenvalue                        ... 1.685e-04
Time for diagonalization                   ...    0.007 sec
Threshold for overlap eigenvalues          ... 1.000e-08
Number of eigenvalues below threshold      ... 0
Time for construction of square roots      ...    0.002 sec
Total time needed                          ...    0.009 sec

Time for model grid setup =    0.096 sec

------------------------------
INITIAL GUESS: MODEL POTENTIAL
------------------------------
Loading Hartree-Fock densities                     ... done
Calculating cut-offs                               ... done
Initializing the effective Hamiltonian             ... done
Setting up the integral package (SHARK)            ... done
Starting the Coulomb interaction                   ... done (   0.1 sec)
Reading the grid                                   ... done
Mapping shells                                     ... done
Starting the XC term evaluation                    ... done (   0.2 sec)
  promolecular density results
     # of electrons  =     43.997243408
     EX              =    -37.885876377
     EC              =     -1.501755790
     EX+EC           =    -39.387632167
Transforming the Hamiltonian                       ... done (   0.0 sec)
Diagonalizing the Hamiltonian                      ... done (   0.0 sec)
Back transforming the eigenvectors                 ... done (   0.0 sec)
Now organizing SCF variables                       ... done
                      ------------------
                      INITIAL GUESS DONE (   0.4 sec)
                      ------------------
-------------------
DFT GRID GENERATION
-------------------

General Integration Accuracy     IntAcc      ... 4.388
Radial Grid Type                 RadialGrid  ... OptM3 with GC (2021)
Angular Grid (max. ang.)         AngularGrid ... 4 (Lebedev-302)
Angular grid pruning method      GridPruning ... 4 (adaptive)
Weight generation scheme         WeightScheme... Becke
Basis function cutoff            BFCut       ... 1.0000e-11
Integration weight cutoff        WCut        ... 1.0000e-14
Angular grids for H and He will be reduced by one unit
Partially contracted basis set               ... off
Rotationally invariant grid construction     ... off

Total number of grid points                  ...    49396
Total number of batches                      ...      776
Average number of points per batch           ...       63
Average number of grid points per atom       ...     4940
Time for grid setup =    0.388 sec

--------------------
COSX GRID GENERATION
--------------------

GRIDX 1
-------
General Integration Accuracy     IntAcc      ... 3.816
Radial Grid Type                 RadialGrid  ... OptM3 with GC (2021)
Angular Grid (max. ang.)         AngularGrid ... 1 (Lebedev-50)
Angular grid pruning method      GridPruning ... 4 (adaptive)
Weight generation scheme         WeightScheme... Becke
Basis function cutoff            BFCut       ... 1.0000e-11
Integration weight cutoff        WCut        ... 1.0000e-14
Angular grids for H and He will be reduced by one unit
Partially contracted basis set               ... on
Rotationally invariant grid construction     ... off

Total number of grid points                  ...     6303
Total number of batches                      ...      103
Average number of points per batch           ...       61
Average number of grid points per atom       ...      630
UseSFitting                                  ... on

GRIDX 2
-------
General Integration Accuracy     IntAcc      ... 4.020
Radial Grid Type                 RadialGrid  ... OptM3 with GC (2021)
Angular Grid (max. ang.)         AngularGrid ... 2 (Lebedev-110)
Angular grid pruning method      GridPruning ... 4 (adaptive)
Weight generation scheme         WeightScheme... Becke
Basis function cutoff            BFCut       ... 1.0000e-11
Integration weight cutoff        WCut        ... 1.0000e-14
Angular grids for H and He will be reduced by one unit
Partially contracted basis set               ... on
Rotationally invariant grid construction     ... off

Total number of grid points                  ...    14123
Total number of batches                      ...      227
Average number of points per batch           ...       62
Average number of grid points per atom       ...     1412
UseSFitting                                  ... on

GRIDX 3
-------
General Integration Accuracy     IntAcc      ... 4.338
Radial Grid Type                 RadialGrid  ... OptM3 with GC (2021)
Angular Grid (max. ang.)         AngularGrid ... 3 (Lebedev-194)
Angular grid pruning method      GridPruning ... 4 (adaptive)
Weight generation scheme         WeightScheme... Becke
Basis function cutoff            BFCut       ... 1.0000e-11
Integration weight cutoff        WCut        ... 1.0000e-14
Angular grids for H and He will be reduced by one unit
Partially contracted basis set               ... on
Rotationally invariant grid construction     ... off

Total number of grid points                  ...    31185
Total number of batches                      ...      493
Average number of points per batch           ...       63
Average number of grid points per atom       ...     3118
UseSFitting                                  ... on

Time for X-Grid setup             =    0.514 sec


--------------------
CPCM SOLVATION MODEL
--------------------
CPCM parameters:
  Epsilon                                         ...       9.0800
  Refrac                                          ...       1.4240
  Rsolv                                           ...       1.3000
  Surface type                                    ... GAUSSIAN VDW
  Epsilon function type                           ...         CPCM
Radii:
 Radius for C  used is    3.8550 Bohr (=   2.0400 Ang.)
 Radius for H  used is    2.4944 Bohr (=   1.3200 Ang.)
 Radius for N  used is    3.5149 Bohr (=   1.8600 Ang.)
 Radius for O  used is    3.4469 Bohr (=   1.8240 Ang.)
Calculating surface                               ...        done! (  0.0s)
GEPOL surface points                              ...          645
GEPOL Volume                                      ...     726.6542
GEPOL Surface-area                                ...     453.8140
Calculating surface distance matrix               ...        done! (  0.0s)
Performing Cholesky decomposition & store         ...        done! (  0.0s)
Overall time for CPCM initialization              ...                 0.0s
--------------
SCF ITERATIONS
--------------
ITER       Energy         Delta-E        Max-DP      RMS-DP      [F,P]     Damp
               ***  Starting incremental Fock matrix formation  ***
  0   -301.1875067432   0.000000000000 0.10050095  0.00177224  0.3155494 0.7000
  1   -301.2748748837  -0.087368140567 0.09017437  0.00134978  0.1172097 0.7000
                               ***Turning on DIIS***
  2   -301.3049375395  -0.030062655742 0.10200177  0.00165318  0.0408499 0.0000
  3   -301.3570614224  -0.052123882969 0.09694872  0.00124567  0.0641779 0.0000
  4   -301.3672466747  -0.010185252265 0.02445528  0.00034509  0.0223797 0.0000
  5   -301.3683300912  -0.001083416476 0.00945231  0.00013475  0.0034576 0.0000
                      *** Initiating the SOSCF procedure ***
                           *** Shutting down DIIS ***
                      *** Re-Reading the Fockian *** 
                      *** Removing any level shift *** 
ITER      Energy       Delta-E        Grad      Rot      Max-DP    RMS-DP
  6   -301.36838543  -0.0000553414  0.000878  0.000878  0.003542  0.000055
               *** Restarting incremental Fock matrix formation ***
  7   -301.36839707  -0.0000116387  0.000470  0.002414  0.001741  0.000037
  8   -301.36839708  -0.0000000045  0.000665  0.001751  0.001285  0.000025
  9   -301.36840232  -0.0000052460  0.000186  0.001077  0.001010  0.000017
 10   -301.36840270  -0.0000003803  0.000100  0.000162  0.000162  0.000004
 11   -301.36840293  -0.0000002301  0.000062  0.000289  0.000376  0.000006
 12   -301.36840296  -0.0000000268  0.000037  0.000070  0.000084  0.000002
 13   -301.36840298  -0.0000000260  0.000015  0.000084  0.000060  0.000001
 14   -301.36840299  -0.0000000070  0.000010  0.000023  0.000012  0.000000
 15   -301.36840299   0.0000000003  0.000004  0.000027  0.000027  0.000000
                  ***Gradient check signals convergence***
              ***Rediagonalizing the Fockian in SOSCF/NRSCF***

               *****************************************************
               *                     SUCCESS                       *
               *           SCF CONVERGED AFTER  16 CYCLES          *
               *****************************************************

Old exchange energy                            =     -7.651593231 Eh
New exchange energy                            =     -7.651594004 Eh
Exchange energy change after final integration =     -0.000000773 Eh
Total energy after final integration           =   -301.368403766 Eh
Final COS-X integration done in                =     6.899 sec

----------------
TOTAL SCF ENERGY
----------------

Total Energy       :         -301.36840377 Eh           -8200.65118 eV

Components:
Nuclear Repulsion  :          207.35775758 Eh            5642.49144 eV
Electronic Energy  :         -508.72616135 Eh          -13843.14262 eV
One Electron Energy:         -818.51976263 Eh          -22273.05508 eV
Two Electron Energy:          309.79360128 Eh            8429.91246 eV
Max COSX asymmetry :            0.00000163 Eh               0.00004 eV
CPCM Dielectric    :           -0.01215004 Eh              -0.33062 eV

Virial components:
Potential Energy   :         -601.34296191 Eh          -16363.37389 eV
Kinetic Energy     :          299.97455814 Eh            8162.72271 eV
Virial Ratio       :            2.00464655


DFT components:
N(Alpha)           :       22.000007101675 electrons
N(Beta)            :       22.000007101675 electrons
N(Total)           :       44.000014203350 electrons
E(X)               :      -30.497931760519 Eh       
E(C)               :       -1.775600009785 Eh       
E(XC)              :      -32.273531770305 Eh       
DFET-embed. en.    :        0.000000000000 Eh       
CPCM Solvation Model Properties:
Surface-charge          :           -0.01783386
Charge-correction       :           -0.00005045 Eh              -0.00137 eV
Free-energy (cav+disp)  :  This term is not implemented in the current solvation scheme

---------------
SCF CONVERGENCE
---------------

  Last Energy change         ...   -1.0590e-09  Tolerance :   1.0000e-08
  Last MAX-Density change    ...    2.1094e-15  Tolerance :   1.0000e-07
  Last RMS-Density change    ...    2.7524e-17  Tolerance :   5.0000e-09
  Last Orbital Gradient      ...    1.9183e-06  Tolerance :   1.0000e-05
  Last Orbital Rotation      ...    1.1887e-05  Tolerance :   1.0000e-05

             **** THE GBW FILE WAS UPDATED (ketone_c02_sp.gbw) ****
             **** DENSITY ketone_c02_sp.scfp WAS UPDATED ****
             **** ENERGY FILE WAS UPDATED (ketone_c02_sp.en.tmp) ****
             **** THE GBW FILE WAS UPDATED (ketone_c02_sp.gbw) ****
             **** DENSITY ketone_c02_sp.scfp WAS UPDATED ****
----------------
ORBITAL ENERGIES
----------------

  NO   OCC          E(Eh)            E(eV) 
   0   2.0000     -19.113071      -520.0931 
   1   2.0000     -14.480403      -394.0318 
   2   2.0000     -14.417848      -392.3296 
   3   2.0000     -10.273242      -279.5491 
   4   2.0000     -10.225481      -278.2495 
   5   2.0000     -10.174592      -276.8647 
   6   2.0000      -1.136355       -30.9218 
   7   2.0000      -1.042667       -28.3724 
   8   2.0000      -0.875072       -23.8119 
   9   2.0000      -0.743151       -20.2222 
  10   2.0000      -0.629638       -17.1333 
  11   2.0000      -0.548803       -14.9337 
  12   2.0000      -0.509294       -13.8586 
  13   2.0000      -0.498036       -13.5523 
  14   2.0000      -0.478723       -13.0267 
  15   2.0000      -0.439583       -11.9617 
  16   2.0000      -0.438919       -11.9436 
  17   2.0000      -0.423451       -11.5227 
  18   2.0000      -0.391908       -10.6644 
  19   2.0000      -0.368084       -10.0161 
  20   2.0000      -0.267216        -7.2713 
  21   2.0000      -0.249191        -6.7808 
  22   0.0000      -0.072822        -1.9816 
  23   0.0000      -0.051210        -1.3935 
  24   0.0000       0.044389         1.2079 
  25   0.0000       0.048836         1.3289 
  26   0.0000       0.087150         2.3715 
  27   0.0000       0.108216         2.9447 
  28   0.0000       0.127707         3.4751 
  29   0.0000       0.130096         3.5401 
  30   0.0000       0.135423         3.6850 
  31   0.0000       0.173829         4.7301 
  32   0.0000       0.191542         5.2121 
  33   0.0000       0.211565         5.7570 
  34   0.0000       0.223815         6.0903 
  35   0.0000       0.235297         6.4027 
  36   0.0000       0.250554         6.8179 
  37   0.0000       0.285882         7.7792 
  38   0.0000       0.295371         8.0375 
  39   0.0000       0.297289         8.0896 
  40   0.0000       0.348158         9.4739 
  41   0.0000       0.349522         9.5110 
  42   0.0000       0.369529        10.0554 
  43   0.0000       0.377505        10.2724 
  44   0.0000       0.394367        10.7313 
  45   0.0000       0.402382        10.9494 
  46   0.0000       0.409923        11.1546 
  47   0.0000       0.425023        11.5655 
  48   0.0000       0.453251        12.3336 
  49   0.0000       0.454257        12.3610 
  50   0.0000       0.460914        12.5421 
  51   0.0000       0.463825        12.6213 
  52   0.0000       0.528320        14.3763 
  53   0.0000       0.543436        14.7876 
  54   0.0000       0.559742        15.2313 
  55   0.0000       0.577659        15.7189 
  56   0.0000       0.614918        16.7328 
  57   0.0000       0.649239        17.6667 
  58   0.0000       0.659340        17.9416 
  59   0.0000       0.671672        18.2771 
  60   0.0000       0.676457        18.4073 
  61   0.0000       0.733296        19.9540 
  62   0.0000       0.804744        21.8982 
  63   0.0000       0.820985        22.3401 
  64   0.0000       0.842743        22.9322 
  65   0.0000       0.861943        23.4547 
  66   0.0000       0.869966        23.6730 
  67   0.0000       0.901272        24.5248 
  68   0.0000       0.923505        25.1298 
  69   0.0000       0.958801        26.0903 
  70   0.0000       0.962751        26.1978 
  71   0.0000       1.015134        27.6232 
  72   0.0000       1.074575        29.2407 
  73   0.0000       1.086372        29.5617 
  74   0.0000       1.103640        30.0316 
  75   0.0000       1.113007        30.2864 
  76   0.0000       1.164420        31.6855 
  77   0.0000       1.264863        34.4187 
  78   0.0000       1.280640        34.8480 
  79   0.0000       1.335615        36.3439 
  80   0.0000       1.345044        36.6005 
  81   0.0000       1.364390        37.1269 
  82   0.0000       1.429132        38.8887 
  83   0.0000       1.437933        39.1281 
  84   0.0000       1.461747        39.7762 
  85   0.0000       1.508596        41.0510 
  86   0.0000       1.514110        41.2010 
  87   0.0000       1.523082        41.4452 
  88   0.0000       1.549932        42.1758 
  89   0.0000       1.561007        42.4772 
  90   0.0000       1.600701        43.5573 
  91   0.0000       1.628892        44.3244 
  92   0.0000       1.667630        45.3785 
  93   0.0000       1.691833        46.0371 
  94   0.0000       1.715052        46.6689 
  95   0.0000       1.785620        48.5892 
  96   0.0000       1.806732        49.1637 
  97   0.0000       1.864037        50.7230 
  98   0.0000       1.868157        50.8351 
  99   0.0000       1.910639        51.9911 
 100   0.0000       1.930344        52.5273 
 101   0.0000       1.946161        52.9577 
 102   0.0000       1.974165        53.7198 
 103   0.0000       2.015439        54.8429 
 104   0.0000       2.017013        54.8857 
 105   0.0000       2.068182        56.2781 
 106   0.0000       2.108546        57.3764 
 107   0.0000       2.163836        58.8810 
 108   0.0000       2.170114        59.0518 
 109   0.0000       2.221916        60.4614 
 110   0.0000       2.249276        61.2059 
 111   0.0000       2.263744        61.5996 
 112   0.0000       2.292891        62.3927 
 113   0.0000       2.306796        62.7711 
 114   0.0000       2.357024        64.1379 
 115   0.0000       2.373734        64.5926 
 116   0.0000       2.408356        65.5347 
 117   0.0000       2.493647        67.8556 
 118   0.0000       2.503449        68.1223 
 119   0.0000       2.523772        68.6753 
 120   0.0000       2.574534        70.0566 
 121   0.0000       2.613086        71.1057 
 122   0.0000       2.631981        71.6198 
 123   0.0000       2.660889        72.4065 
 124   0.0000       2.693150        73.2843 
 125   0.0000       2.741322        74.5952 
 126   0.0000       2.747159        74.7540 
 127   0.0000       2.803148        76.2775 
 128   0.0000       2.856046        77.7169 
 129   0.0000       2.896788        78.8256 
 130   0.0000       2.985156        81.2302 
 131   0.0000       3.000335        81.6433 
 132   0.0000       3.011470        81.9463 
 133   0.0000       3.035200        82.5920 
 134   0.0000       3.056943        83.1837 
 135   0.0000       3.110306        84.6357 
 136   0.0000       3.120666        84.9176 
 137   0.0000       3.137686        85.3808 
 138   0.0000       3.172397        86.3253 
 139   0.0000       3.200123        87.0798 
 140   0.0000       3.222133        87.6787 
 141   0.0000       3.258964        88.6809 
 142   0.0000       3.286310        89.4250 
 143   0.0000       3.330198        90.6193 
 144   0.0000       3.359612        91.4197 
 145   0.0000       3.376337        91.8748 
 146   0.0000       3.396555        92.4250 
 147   0.0000       3.448489        93.8382 
 148   0.0000       3.466171        94.3193 
 149   0.0000       3.496119        95.1342 
 150   0.0000       3.547150        96.5229 
 151   0.0000       3.583150        97.5025 
 152   0.0000       3.602392        98.0261 
 153   0.0000       3.666529        99.7713 
 154   0.0000       3.673732        99.9673 
 155   0.0000       3.713140       101.0397 
 156   0.0000       3.771672       102.6324 
 157   0.0000       3.830320       104.2283 
 158   0.0000       3.835406       104.3667 
 159   0.0000       3.919815       106.6636 
 160   0.0000       3.927242       106.8657 
 161   0.0000       3.967112       107.9506 
 162   0.0000       4.022919       109.4692 
 163   0.0000       4.058046       110.4250 
 164   0.0000       4.103610       111.6649 
 165   0.0000       4.160534       113.2139 
 166   0.0000       4.201681       114.3336 
 167   0.0000       4.248240       115.6005 
 168   0.0000       4.285431       116.6125 
 169   0.0000       4.301346       117.0456 
 170   0.0000       4.367301       118.8403 
 171   0.0000       4.396089       119.6237 
 172   0.0000       4.420729       120.2942 
 173   0.0000       4.445665       120.9727 
 174   0.0000       4.508045       122.6701 
 175   0.0000       4.538694       123.5042 
 176   0.0000       4.552717       123.8857 
 177   0.0000       4.605488       125.3217 
 178   0.0000       4.695954       127.7834 
 179   0.0000       4.732692       128.7831 
 180   0.0000       4.788653       130.3059 
 181   0.0000       4.839876       131.6997 
 182   0.0000       4.852191       132.0348 
 183   0.0000       5.026524       136.7787 
 184   0.0000       5.136006       139.7578 
 185   0.0000       5.182610       141.0260 
 186   0.0000       5.203915       141.6057 
 187   0.0000       5.212929       141.8510 
 188   0.0000       5.310238       144.4989 
 189   0.0000       5.414430       147.3341 
 190   0.0000       5.577900       151.7824 
 191   0.0000       5.724284       155.7657 
 192   0.0000       6.095080       165.8556 
 193   0.0000       6.285400       171.0344 
 194   0.0000       6.361137       173.0953 
 195   0.0000       6.424502       174.8196 
 196   0.0000       6.425593       174.8493 
 197   0.0000       6.502796       176.9501 
 198   0.0000       6.557244       178.4317 
 199   0.0000       6.646412       180.8581 
 200   0.0000       6.796505       184.9423 
 201   0.0000       6.977403       189.8648 
 202   0.0000       7.046624       191.7484 
 203   0.0000       7.098930       193.1717 
 204   0.0000      22.292686       606.6148 
 205   0.0000      22.722681       618.3156 
 206   0.0000      23.031430       626.7171 
 207   0.0000      31.658929       861.4833 
 208   0.0000      32.901164       895.2862 
 209   0.0000      43.846230      1193.1166 
------------------
MOLECULAR ORBITALS
------------------
                      0         1         2         3         4         5   
                 -19.11307 -14.48040 -14.41785 -10.27324 -10.22548 -10.17459
                   2.00000   2.00000   2.00000   2.00000   2.00000   2.00000
                  --------  --------  --------  --------  --------  --------
  0C   1s        -0.000016  0.000048 -0.000005  0.001554  0.466839 -0.000022
  0C   2s         0.000080 -0.000239  0.000024  0.002141  0.608005  0.000008
  0C   3s        -0.000877 -0.000094  0.000323 -0.000894  0.041704 -0.000669
  0C   4s        -0.000530  0.021097  0.005081  0.010220 -0.025334  0.005614
  0C   5s        -0.000604 -0.004735  0.001194 -0.008974  0.000140 -0.000913
  0C   1pz       -0.000005 -0.000092 -0.000020  0.000015 -0.000249 -0.000015
  0C   1px       -0.000056  0.000154  0.000048  0.000075  0.000920 -0.000181
  0C   1py       -0.000037 -0.000963 -0.000202  0.000140 -0.002636 -0.000097
  0C   2pz       -0.000523 -0.001875 -0.000104 -0.000098 -0.000481  0.000534
  0C   2px       -0.002520  0.000064  0.000339  0.002057 -0.002589  0.005412
  0C   2py       -0.005028 -0.018958 -0.001099 -0.001221 -0.004618  0.004587
  0C   3pz       -0.000261  0.000308  0.000062  0.000140  0.000621  0.000072
  0C   3px        0.000892 -0.005342 -0.002974 -0.003015 -0.002883 -0.001078
  0C   3py       -0.002604  0.003809  0.001162  0.001549  0.006521  0.001102
  0C   1dz2       0.000080 -0.000427 -0.000006  0.000090 -0.001615 -0.000043
  0C   1dxz      -0.000005 -0.000010 -0.000003 -0.000019  0.000027  0.000001
  0C   1dyz      -0.000014  0.000134 -0.000005 -0.000005  0.000366  0.000000
  0C   1dx2y2    -0.000007 -0.000620  0.000045 -0.000118 -0.000866  0.000051
  0C   1dxy      -0.000037 -0.000110 -0.000035 -0.000161  0.000056  0.000016
  0C   2dz2      -0.000757 -0.002270  0.000211 -0.000943 -0.000674 -0.000137
  0C   2dxz      -0.000257 -0.000279  0.000083 -0.000193 -0.000301  0.000273
  0C   2dyz       0.000251  0.000842 -0.000027  0.000336  0.000228 -0.000140
  0C   2dx2y2    -0.001467 -0.004780  0.000093 -0.002018 -0.001470  0.002119
  0C   2dxy      -0.002582 -0.002744  0.000856 -0.001909 -0.003036  0.002279
  0C   1f0        0.000019  0.000053 -0.000044  0.000141  0.000128 -0.000057
  0C   1f+1      -0.000091 -0.000029  0.000056  0.000348  0.000395 -0.000114
  0C   1f-1       0.000092  0.000213 -0.000183  0.000527  0.000468 -0.000202
  0C   1f+2       0.000011  0.000020 -0.000051 -0.000007  0.000219 -0.000032
  0C   1f-2       0.000026 -0.000026 -0.000021 -0.000097  0.000022  0.000016
  0C   1f+3       0.000102 -0.000204 -0.000122 -0.000163  0.000612 -0.000106
  0C   1f-3       0.000027  0.000159  0.000187  0.000722 -0.001303  0.000041
  1H   1s        -0.000087  0.000268  0.000061  0.000195 -0.000637  0.000077
  1H   2s        -0.000765 -0.000530  0.000046 -0.001190 -0.002102  0.000710
  1H   3s         0.000919 -0.002826 -0.001849 -0.000009 -0.003480 -0.000439
  1H   1pz       -0.000022  0.000006  0.000006 -0.000049  0.000033  0.000020
  1H   1px       -0.000285 -0.000143  0.000066 -0.000305 -0.002070  0.000317
  1H   1py       -0.000193  0.000067  0.000049 -0.000462  0.000569  0.000136
  2C   1s        -0.000050  0.000018 -0.000002  0.466927 -0.001638  0.000576
  2C   2s         0.000292 -0.000104  0.000012  0.608068 -0.002001  0.000684
  2C   3s        -0.000611  0.001166 -0.000193  0.041363 -0.000846  0.000142
  2C   4s        -0.002569 -0.000300 -0.000415 -0.027485  0.008961 -0.006145
  2C   5s         0.001310  0.009885  0.007804  0.020515 -0.003483  0.016948
  2C   1pz       -0.000062 -0.000012  0.000004  0.000056 -0.000020 -0.000001
  2C   1px        0.000162  0.000074 -0.000054 -0.000234 -0.000299 -0.000652
  2C   1py       -0.000614 -0.000117  0.000043  0.000556 -0.000156  0.000078
  2C   2pz       -0.001117 -0.000146  0.000009  0.001386 -0.000119  0.000215
  2C   2px       -0.001266 -0.004269  0.000913 -0.005931  0.000096  0.006833
  2C   2py       -0.011222 -0.000996 -0.000024  0.014822 -0.001289  0.001400
  2C   3pz        0.000683 -0.000361 -0.000322 -0.000823 -0.000156 -0.000138
  2C   3px       -0.003388  0.002997  0.003620  0.003853  0.000004  0.007331
  2C   3py        0.006971 -0.004083 -0.004044 -0.008354 -0.001468 -0.002429
  2C   1dz2       0.000236 -0.000095  0.000037 -0.001852  0.000115 -0.000105
  2C   1dxz       0.000005  0.000003  0.000004 -0.000002 -0.000013 -0.000003
  2C   1dyz      -0.000073  0.000024 -0.000013  0.000437 -0.000016  0.000013
  2C   1dx2y2     0.000346 -0.000059  0.000070 -0.001204 -0.000050  0.000036
  2C   1dxy       0.000094  0.000030  0.000052 -0.000288 -0.000093 -0.000023
  2C   2dz2       0.001812  0.000642 -0.000264  0.000992 -0.000320  0.000191
  2C   2dxz       0.000328  0.000199 -0.000059 -0.000117 -0.000296 -0.000414
  2C   2dyz      -0.000802 -0.000198  0.000075  0.000586 -0.000014 -0.000308
  2C   2dx2y2     0.005164  0.001029 -0.000329 -0.007470  0.000357  0.002266
  2C   2dxy       0.002922  0.001996 -0.000720  0.000074 -0.003187 -0.004775
  2C   1f0        0.000088 -0.000016 -0.000001 -0.000299 -0.000100  0.000037
  2C   1f+1      -0.000007 -0.000028 -0.000018  0.000243 -0.000477 -0.000740
  2C   1f-1       0.000356 -0.000061 -0.000001 -0.001225 -0.000352  0.000226
  2C   1f+2       0.000055 -0.000024 -0.000003 -0.000358  0.000043 -0.000022
  2C   1f-2      -0.000013  0.000028  0.000004 -0.000092  0.000103  0.000064
  2C   1f+3      -0.000047  0.000204  0.000010 -0.000490  0.000093 -0.000248
  2C   1f-3       0.000036  0.000094  0.000028  0.001324 -0.000741  0.000646
  3N   1s         0.000006  0.448281 -0.004616  0.000008 -0.000060 -0.000001
  3N   2s        -0.000035  0.626220 -0.006461 -0.000086 -0.000356  0.000006
  3N   3s         0.000693  0.045635  0.002861  0.001277  0.006664 -0.000304
  3N   4s        -0.004509 -0.063655 -0.011362 -0.005977 -0.030693  0.002280
  3N   5s        -0.001073  0.033457  0.000401 -0.001350 -0.011272  0.003691
  3N   1pz        0.000011 -0.000018 -0.000030  0.000025  0.000035 -0.000002
  3N   1px        0.000025  0.000174  0.000038  0.000043 -0.000016 -0.000014
  3N   1py        0.000111 -0.000235 -0.000320  0.000259  0.000363 -0.000054
  3N   2pz       -0.000246  0.000020  0.000853 -0.000255  0.000476  0.000157
  3N   2px       -0.000195 -0.000876 -0.001173 -0.000383 -0.001269 -0.000176
  3N   2py       -0.002466  0.000501  0.008954 -0.002579  0.005122  0.001766
  3N   3pz        0.000130 -0.001679 -0.000698  0.000073  0.002423 -0.000021
  3N   3px        0.000738  0.003874  0.001894 -0.001604 -0.003328  0.001118
  3N   3py        0.001119 -0.017872 -0.007571  0.001189  0.025286 -0.000981
  3N   1dz2       0.000040 -0.000874  0.000102 -0.000028  0.000012  0.000015
  3N   1dxz      -0.000003 -0.000039  0.000001  0.000006 -0.000001 -0.000004
  3N   1dyz      -0.000005  0.000294 -0.000033  0.000012  0.000006 -0.000001
  3N   1dx2y2    -0.000027 -0.001523  0.000164 -0.000065 -0.000085 -0.000026
  3N   1dxy      -0.000017 -0.000391  0.000016  0.000059 -0.000003  0.000011
  3N   2dz2       0.000121  0.005704  0.002820  0.000544  0.004709 -0.000278
  3N   2dxz      -0.000010  0.000235  0.000167 -0.000046  0.000181  0.000001
  3N   2dyz      -0.000083 -0.001921 -0.000924 -0.000186 -0.001629  0.000085
  3N   2dx2y2     0.000635  0.009963  0.004765  0.000895  0.008601 -0.000353
  3N   2dxy      -0.000165  0.002389  0.001730 -0.000441  0.001830 -0.000127
  3N   1f0       -0.000002  0.000015 -0.000221  0.000015  0.000084 -0.000008
  3N   1f+1       0.000013 -0.000011  0.000119 -0.000002 -0.000044 -0.000015
  3N   1f-1      -0.000007  0.000062 -0.000913  0.000057  0.000339 -0.000021
  3N   1f+2       0.000004  0.000013 -0.000275  0.000008  0.000126 -0.000006
  3N   1f-2      -0.000007  0.000003 -0.000074 -0.000019  0.000033 -0.000001
  3N   1f+3      -0.000050  0.000016 -0.000475 -0.000149  0.000200 -0.000026
  3N   1f-3      -0.000036 -0.000022  0.001127  0.000032 -0.000594  0.000030
  4N   1s        -0.000002  0.004495  0.448233  0.000000 -0.000001  0.000002
  4N   2s         0.000009  0.006327  0.627062 -0.000001  0.000021 -0.000025
  4N   3s        -0.000019  0.000180  0.033983  0.000036 -0.001929  0.000207
  4N   4s         0.000181  0.019322 -0.007772  0.000347  0.020865 -0.000797
  4N   5s         0.000809 -0.029626  0.000252  0.003287  0.028126 -0.001189
  4N   1pz        0.000001  0.000034  0.000326 -0.000003 -0.000031  0.000007
  4N   1px        0.000021 -0.000014 -0.000454 -0.000026  0.000064  0.000029
  4N   1py        0.000004  0.000343  0.003424 -0.000025 -0.000339  0.000026
  4N   2pz       -0.000006  0.001078  0.000582  0.000048  0.001304 -0.000028
  4N   2px       -0.000123 -0.001877 -0.000934 -0.000089 -0.002185 -0.000193
  4N   2py       -0.000042  0.011385  0.006128  0.000493  0.013742 -0.000117
  4N   3pz        0.000014 -0.000910 -0.000075  0.000141  0.000888 -0.000017
  4N   3px       -0.000263  0.001259  0.000209  0.000373 -0.001337  0.000196
  4N   3py        0.000211 -0.009583 -0.000757  0.001313  0.009362 -0.000259
  4N   1dz2       0.000001  0.000107 -0.000548 -0.000005 -0.000013  0.000045
  4N   1dxz       0.000002  0.000005 -0.000028 -0.000003  0.000001 -0.000006
  4N   1dyz       0.000001 -0.000035  0.000186 -0.000003  0.000003 -0.000007
  4N   1dx2y2    -0.000008  0.000176 -0.000983  0.000025  0.000009 -0.000011
  4N   1dxy       0.000025  0.000056 -0.000291 -0.000032  0.000007 -0.000021
  4N   2dz2       0.000046 -0.001145 -0.000975 -0.000030 -0.002076 -0.000175
  4N   2dxz      -0.000009 -0.000064 -0.000037  0.000006 -0.000114  0.000010
  4N   2dyz      -0.000017  0.000375  0.000319  0.000026  0.000684  0.000034
  4N   2dx2y2     0.000083 -0.001919 -0.001634 -0.000170 -0.003577 -0.000043
  4N   2dxy      -0.000090 -0.000686 -0.000389  0.000072 -0.001197  0.000003
  4N   1f0        0.000006  0.000114 -0.000056  0.000007 -0.000031 -0.000007
  4N   1f+1      -0.000006 -0.000067  0.000026 -0.000008  0.000026 -0.000006
  4N   1f-1       0.000025  0.000477 -0.000231  0.000033 -0.000129 -0.000024
  4N   1f+2       0.000005  0.000141 -0.000070  0.000004 -0.000039 -0.000005
  4N   1f-2       0.000001  0.000038 -0.000017  0.000004 -0.000016 -0.000001
  4N   1f+3       0.000009  0.000244 -0.000114  0.000026 -0.000098 -0.000010
  4N   1f-3      -0.000007 -0.000565  0.000293  0.000002  0.000158  0.000014
  5C   1s        -0.000017 -0.000002 -0.000005  0.000516 -0.000014 -0.466791
  5C   2s         0.000084  0.000011  0.000029  0.000770 -0.000052 -0.608447
  5C   3s        -0.000464 -0.000650  0.000110 -0.001536  0.000807 -0.036390
  5C   4s         0.000099  0.003812 -0.001224  0.012075 -0.004699  0.015928
  5C   5s         0.003882 -0.009980 -0.007035 -0.011487  0.002476 -0.039291
  5C   1pz       -0.000003  0.000002  0.000000 -0.000008 -0.000007 -0.000010
  5C   1px        0.000160  0.000069  0.000002  0.000004 -0.000197  0.000527
  5C   1py       -0.000139 -0.000016  0.000031 -0.000112 -0.000090 -0.000089
  5C   2pz       -0.000102 -0.000046  0.000003  0.000306  0.000040 -0.000034
  5C   2px       -0.000079 -0.002112  0.000479 -0.006190  0.003556  0.000415
  5C   2py        0.000078  0.000249 -0.000019  0.004100  0.000427 -0.000097
  5C   3pz       -0.000058 -0.000009 -0.000029  0.000002  0.000042 -0.000107
  5C   3px       -0.000911  0.002306  0.002912  0.002858 -0.000536  0.005086
  5C   3py        0.000236 -0.000241  0.000184 -0.002144  0.000186 -0.000174
  5C   1dz2       0.000081 -0.000017  0.000025  0.000024  0.000061  0.000117
  5C   1dxz       0.000002  0.000000  0.000002  0.000004  0.000001  0.000005
  5C   1dyz      -0.000016  0.000002 -0.000003 -0.000002 -0.000015 -0.000022
  5C   1dx2y2     0.000029  0.000037  0.000020  0.000012  0.000056  0.000049
  5C   1dxy       0.000061  0.000004  0.000009  0.000048  0.000023  0.000020
  5C   2dz2      -0.000833 -0.000342 -0.000174 -0.000815 -0.000134 -0.000760
  5C   2dxz       0.000089 -0.000019  0.000001 -0.000102  0.000020  0.000028
  5C   2dyz       0.000141  0.000021  0.000041  0.000066  0.000125  0.000105
  5C   2dx2y2     0.000244  0.000655 -0.000265  0.000360 -0.001269  0.000020
  5C   2dxy       0.000825 -0.000469  0.000100 -0.001218  0.000618  0.000270
  5C   1f0        0.000001 -0.000008  0.000013  0.000002  0.000006  0.000218
  5C   1f+1       0.000078  0.000085 -0.000005 -0.000419 -0.000092 -0.000037
  5C   1f-1       0.000026 -0.000042  0.000082 -0.000012  0.000044  0.001513
  5C   1f+2      -0.000013  0.000005  0.000005 -0.000052  0.000011  0.000068
  5C   1f-2      -0.000006  0.000001 -0.000006  0.000027  0.000002 -0.000041
  5C   1f+3       0.000098  0.000085 -0.000078 -0.000128 -0.000058 -0.000587
  5C   1f-3       0.000127 -0.000078  0.000049  0.000575 -0.000024  0.000876
  6O   1s        -0.435090 -0.000002  0.000001 -0.000066  0.000004 -0.000004
  6O   2s        -0.639490  0.000020 -0.000013 -0.000346 -0.000046  0.000053
  6O   3s        -0.036797 -0.000245  0.000130  0.003862  0.000461 -0.000534
  6O   4s         0.032482  0.001597 -0.000702 -0.014607 -0.001320  0.001692
  6O   5s        -0.011936 -0.000074  0.001299  0.001512  0.000075 -0.000518
  6O   1pz        0.000213  0.000001  0.000003 -0.000069 -0.000013  0.000008
  6O   1px       -0.000245  0.000015 -0.000030  0.000142 -0.000113 -0.000185
  6O   1py        0.002183  0.000014  0.000035 -0.000715 -0.000125  0.000079
  6O   2pz       -0.000706 -0.000050 -0.000002  0.000828  0.000072 -0.000038
  6O   2px        0.000777 -0.000165  0.000160 -0.001510  0.000896  0.001206
  6O   2py       -0.007230 -0.000493 -0.000028  0.008532  0.000639 -0.000418
  6O   3pz        0.000043  0.000063  0.000012  0.000019  0.000067  0.000001
  6O   3px        0.000144  0.000099 -0.000451 -0.000289  0.001072 -0.000519
  6O   3py        0.000482  0.000597  0.000235  0.000181  0.000558 -0.000194
  6O   1dz2       0.000108 -0.000032  0.000000  0.000084 -0.000002  0.000015
  6O   1dxz       0.000008  0.000002 -0.000000 -0.000008  0.000010  0.000005
  6O   1dyz      -0.000046  0.000008  0.000000 -0.000003  0.000006 -0.000001
  6O   1dx2y2     0.000282 -0.000022 -0.000005 -0.000127 -0.000044  0.000000
  6O   1dxy       0.000069  0.000023 -0.000001 -0.000049  0.000097  0.000062
  6O   2dz2      -0.000750  0.000122 -0.000009  0.001239  0.000032 -0.000088
  6O   2dxz      -0.000040  0.000003 -0.000002  0.000118 -0.000073 -0.000036
  6O   2dyz       0.000280 -0.000028  0.000002 -0.000523 -0.000030 -0.000007
  6O   2dx2y2    -0.001534  0.000058  0.000009  0.003202  0.000168  0.000124
  6O   2dxy      -0.000368  0.000040 -0.000015  0.001064 -0.000733 -0.000414
  6O   1f0        0.000030 -0.000009  0.000003 -0.000091 -0.000001  0.000006
  6O   1f+1      -0.000018  0.000012 -0.000002  0.000048  0.000015  0.000028
  6O   1f-1       0.000123 -0.000037  0.000013 -0.000366 -0.000004  0.000026
  6O   1f+2       0.000037 -0.000006  0.000004 -0.000132  0.000002 -0.000005
  6O   1f-2       0.000011 -0.000007  0.000001 -0.000045  0.000012 -0.000010
  6O   1f+3       0.000069 -0.000047  0.000001 -0.000288  0.000107 -0.000034
  6O   1f-3      -0.000145  0.000003 -0.000013  0.000620 -0.000039  0.000070
  7H   1s        -0.000003 -0.000034 -0.000085  0.000038  0.000071  0.000387
  7H   2s         0.000744  0.000092  0.000880 -0.000440  0.000295  0.003301
  7H   3s        -0.000250  0.001164  0.000036 -0.000178 -0.000276  0.005889
  7H   1pz        0.000046 -0.000043  0.000096  0.000068  0.000021  0.001799
  7H   1px       -0.000047  0.000035 -0.000062  0.000327 -0.000060 -0.000365
  7H   1py        0.000185 -0.000037  0.000058 -0.000103  0.000142  0.001237
  8H   1s        -0.000104 -0.000019  0.000009 -0.000059 -0.000113  0.000422
  8H   2s        -0.000834  0.000400  0.000029 -0.000575 -0.001105  0.001916
  8H   3s        -0.000410  0.000488 -0.000444  0.001552  0.000184  0.004134
  8H   1pz       -0.000005 -0.000002 -0.000002 -0.000012  0.000002 -0.000095
  8H   1px        0.000155 -0.000024 -0.000017  0.000353  0.000223 -0.001352
  8H   1py        0.000060 -0.000018 -0.000059 -0.000175  0.000136 -0.001533
  9H   1s         0.000011 -0.000035 -0.000085  0.000029  0.000084  0.000389
  9H   2s         0.000890  0.000192  0.000867 -0.000468  0.000306  0.003332
  9H   3s        -0.000227  0.001125  0.000145 -0.000371 -0.000320  0.006007
  9H   1pz       -0.000049  0.000017 -0.000099 -0.000077 -0.000013 -0.001652
  9H   1px       -0.000067  0.000017 -0.000061  0.000332 -0.000056 -0.000372
  9H   1py        0.000195 -0.000036  0.000063 -0.000093  0.000141  0.001432
                      6         7         8         9        10        11   
                  -1.13636  -1.04267  -0.87507  -0.74315  -0.62964  -0.54880
                   2.00000   2.00000   2.00000   2.00000   2.00000   2.00000
                  --------  --------  --------  --------  --------  --------
  0C   1s        -0.018074  0.011301  0.072425  0.006552  0.039193 -0.028877
  0C   2s        -0.037669  0.023351  0.152495  0.013932  0.083611 -0.061569
  0C   3s         0.054562 -0.038308 -0.239610 -0.024659 -0.132061  0.096122
  0C   4s         0.036033 -0.008877 -0.219298 -0.008639 -0.160560  0.141034
  0C   5s        -0.011119  0.003814 -0.049846 -0.014433 -0.063997  0.071746
  0C   1pz       -0.003940 -0.001676  0.010629  0.006819 -0.021209  0.005642
  0C   1px        0.006313 -0.013737 -0.026423  0.049184 -0.071287 -0.216074
  0C   1py       -0.040928 -0.015295  0.111299  0.063250 -0.206573  0.079940
  0C   2pz       -0.001274 -0.000889  0.003153  0.003324 -0.011979  0.003404
  0C   2px        0.005173 -0.000235 -0.023562  0.035497 -0.045203 -0.136511
  0C   2py       -0.013853 -0.008961  0.035046  0.029444 -0.115853  0.048775
  0C   3pz        0.000543  0.000180  0.000733 -0.000040 -0.002904  0.001092
  0C   3px       -0.003819  0.001656 -0.006981 -0.003316 -0.002951 -0.028974
  0C   3py        0.006029  0.001435  0.008103  0.000176 -0.029165  0.014134
  0C   1dz2      -0.003738  0.001220  0.011425  0.001377  0.001952 -0.001085
  0C   1dxz      -0.000096 -0.000135  0.000077  0.000307 -0.000969  0.000385
  0C   1dyz       0.001125 -0.000307 -0.002960 -0.000939  0.000948 -0.000382
  0C   1dx2y2    -0.004999  0.000826  0.010207  0.007372 -0.013850  0.006015
  0C   1dxy      -0.001164 -0.001200  0.001929  0.002489 -0.007832  0.003068
  0C   2dz2      -0.003920 -0.001060  0.008822  0.000222  0.002022 -0.003213
  0C   2dxz       0.000060  0.000078 -0.001014  0.000194 -0.000684  0.001435
  0C   2dyz       0.000986  0.000156 -0.001628 -0.000843  0.000139  0.000708
  0C   2dx2y2    -0.003228  0.000194  0.000075  0.008301 -0.005586 -0.000065
  0C   2dxy       0.000128  0.000518 -0.008454  0.001015 -0.005882  0.013967
  0C   1f0        0.000347  0.000192 -0.000552 -0.000297  0.000943 -0.000225
  0C   1f+1      -0.000260  0.000354  0.000674 -0.001066  0.001165  0.002968
  0C   1f-1       0.001432  0.000723 -0.002294 -0.001080  0.003655 -0.001231
  0C   1f+2       0.000538  0.000241 -0.001155 -0.000210  0.000472 -0.000059
  0C   1f-2       0.000178 -0.000195 -0.000439 -0.000018 -0.000454 -0.000533
  0C   1f+3       0.001048 -0.001126 -0.002331 -0.001637 -0.001547 -0.000915
  0C   1f-3      -0.002616 -0.000927  0.006617  0.000657  0.000947 -0.001503
  1H   1s         0.005267 -0.005223 -0.035101 -0.012250 -0.045411  0.130955
  1H   2s         0.003358 -0.005400 -0.034837 -0.013013 -0.054879  0.167984
  1H   3s        -0.001422 -0.000453 -0.001355 -0.003955  0.000064  0.037229
  1H   1pz       -0.000094 -0.000037  0.000329  0.000217 -0.000391 -0.000505
  1H   1px        0.000524 -0.001542 -0.005541 -0.000951 -0.008618  0.016538
  1H   1py       -0.001017 -0.000214  0.003961  0.002291 -0.003024 -0.006996
  2C   1s        -0.003983  0.058116  0.015351 -0.039276  0.046887  0.017213
  2C   2s        -0.008263  0.121620  0.032197 -0.083567  0.100483  0.037077
  2C   3s         0.013634 -0.191899 -0.050500  0.137295 -0.165531 -0.059996
  2C   4s         0.004689 -0.154195 -0.039609  0.133035 -0.192846 -0.091833
  2C   5s         0.010785 -0.022591  0.001648  0.026275 -0.036744 -0.043172
  2C   1pz       -0.000373 -0.012601  0.007425 -0.008667  0.012151  0.004176
  2C   1px       -0.003510  0.021917  0.021649  0.083265  0.151673 -0.022510
  2C   1py       -0.003419 -0.129316  0.072887 -0.099991  0.104552  0.042804
  2C   2pz       -0.000114 -0.003387  0.003215 -0.004591  0.007974  0.003828
  2C   2px        0.000084  0.007582  0.001671  0.044998  0.095253 -0.011463
  2C   2py       -0.001216 -0.034228  0.032535 -0.053367  0.069218  0.038307
  2C   3pz       -0.000312 -0.000174 -0.000136 -0.001271  0.002339  0.001089
  2C   3px        0.003592  0.000259 -0.005145 -0.003208 -0.005312 -0.003382
  2C   3py       -0.003977 -0.001343 -0.000520 -0.013092  0.024447  0.011016
  2C   1dz2      -0.000589  0.011093  0.001123 -0.003261  0.004177  0.001646
  2C   1dxz       0.000028  0.000365 -0.000418  0.000041 -0.000810 -0.000142
  2C   1dyz       0.000168 -0.003376  0.000089 -0.000269 -0.000189 -0.000747
  2C   1dx2y2    -0.000641  0.014964 -0.003192  0.007997 -0.006120  0.004428
  2C   1dxy       0.000260  0.004225 -0.003604 -0.001488 -0.006729 -0.001671
  2C   2dz2       0.000029  0.010644  0.001711 -0.002565  0.005463  0.004020
  2C   2dxz      -0.000023 -0.000164  0.000103 -0.000210 -0.001156 -0.000350
  2C   2dyz       0.000081 -0.001960 -0.000666 -0.000151 -0.000540 -0.001713
  2C   2dx2y2    -0.000852  0.001614  0.003806  0.005438 -0.005173  0.009333
  2C   2dxy      -0.000244  0.000879  0.001015 -0.003617 -0.009928 -0.003646
  2C   1f0        0.000035  0.000661 -0.000392  0.000340 -0.000431 -0.000300
  2C   1f+1       0.000094 -0.000526 -0.000327 -0.000905 -0.001600  0.000459
  2C   1f-1       0.000132  0.002627 -0.001547  0.001542 -0.001576 -0.001238
  2C   1f+2       0.000033  0.001384 -0.000329 -0.000004  0.000217 -0.000152
  2C   1f-2      -0.000067  0.000601  0.000213  0.000048  0.000461  0.000275
  2C   1f+3      -0.000408  0.003623  0.001139 -0.000187  0.001012  0.002585
  2C   1f-3      -0.000054 -0.008233  0.000569  0.002277 -0.003727 -0.000786
  3N   1s        -0.084955 -0.001676  0.035072  0.015527 -0.030381  0.015653
  3N   2s        -0.190741 -0.003823  0.079227  0.035382 -0.069701  0.036055
  3N   3s         0.294065  0.007597 -0.119795 -0.057013  0.117536 -0.061332
  3N   4s         0.303503 -0.001533 -0.174267 -0.071743  0.134190 -0.075981
  3N   5s         0.030288 -0.000389 -0.051875 -0.018711  0.066905 -0.059306
  3N   1pz       -0.011627 -0.001815 -0.026040 -0.006434  0.009902 -0.008525
  3N   1px        0.019175  0.000425  0.029626  0.036420 -0.055064 -0.225101
  3N   1py       -0.122651 -0.018638 -0.269827 -0.070004  0.108679 -0.064509
  3N   2pz       -0.006616 -0.001422 -0.018403 -0.004514  0.007838 -0.007417
  3N   2px        0.011462  0.000949  0.018318  0.029469 -0.045606 -0.186116
  3N   2py       -0.069933 -0.014676 -0.190281 -0.049435  0.086438 -0.056823
  3N   3pz        0.002223 -0.000586 -0.000428 -0.001330  0.002326 -0.002086
  3N   3px       -0.001283 -0.000924 -0.000546  0.011659 -0.013554 -0.077759
  3N   3py        0.023029 -0.005598 -0.004216 -0.015185  0.025514 -0.014331
  3N   1dz2      -0.008228 -0.000275  0.000185  0.000184 -0.000193  0.000288
  3N   1dxz      -0.000353 -0.000030 -0.000051  0.000086 -0.000089  0.000118
  3N   1dyz       0.002662  0.000084 -0.000065 -0.000070  0.000069 -0.000010
  3N   1dx2y2    -0.013346 -0.000431  0.000085  0.000463 -0.000412 -0.000297
  3N   1dxy      -0.003774 -0.000324 -0.000513  0.000846 -0.000861  0.001401
  3N   2dz2      -0.013405  0.000791  0.003525  0.000174  0.002134 -0.000966
  3N   2dxz      -0.000487  0.000035 -0.000133  0.000287 -0.000150 -0.000239
  3N   2dyz       0.004184 -0.000241 -0.001256 -0.000237 -0.000817  0.000385
  3N   2dx2y2    -0.020009  0.001037  0.006214  0.002347  0.004510 -0.002602
  3N   2dxy      -0.005418  0.000426 -0.001400  0.002779 -0.001538 -0.002258
  3N   1f0        0.000633  0.000120  0.001075  0.000212 -0.000274  0.000215
  3N   1f+1      -0.000436 -0.000107 -0.000439 -0.000651  0.000620  0.002418
  3N   1f-1       0.002648  0.000501  0.004402  0.000935 -0.001198  0.000592
  3N   1f+2       0.000739  0.000130  0.001278  0.000246 -0.000340  0.000570
  3N   1f-2       0.000218  0.000053  0.000251  0.000307 -0.000395 -0.001199
  3N   1f+3       0.001347  0.000334  0.001627  0.001739 -0.002484 -0.007103
  3N   1f-3      -0.002807 -0.000435 -0.004881 -0.000935  0.001434 -0.003545
  4N   1s        -0.068397 -0.004704 -0.042223 -0.010366  0.021932 -0.014554
  4N   2s        -0.153069 -0.010554 -0.095266 -0.023516  0.049907 -0.033205
  4N   3s         0.238497  0.016717  0.154602  0.039086 -0.083077  0.054157
  4N   4s         0.199529  0.016022  0.149419  0.038797 -0.082725  0.065477
  4N   5s         0.076113  0.000040  0.071581  0.008836 -0.043620  0.058011
  4N   1pz        0.015075  0.000953  0.006645  0.001081  0.000104 -0.005953
  4N   1px       -0.022203 -0.001804 -0.011891  0.008164 -0.016464 -0.127931
  4N   1py        0.158089  0.010063  0.070366  0.010448  0.003172 -0.048143
  4N   2pz        0.007116  0.000527  0.002863  0.000302  0.001435 -0.004925
  4N   2px       -0.010449 -0.000843 -0.006251  0.006662 -0.015198 -0.101707
  4N   2py        0.074579  0.005542  0.030594  0.002619  0.016762 -0.040138
  4N   3pz        0.002055 -0.000012  0.001362 -0.000153  0.000461 -0.001347
  4N   3px       -0.003349  0.000305 -0.002126  0.001591 -0.003876 -0.035204
  4N   3py        0.021601 -0.000226  0.014340 -0.001615  0.005344 -0.010001
  4N   1dz2      -0.008053 -0.000483 -0.003334 -0.000455  0.000208  0.000546
  4N   1dxz      -0.000351 -0.000028 -0.000159  0.000055 -0.000112 -0.000789
  4N   1dyz       0.002597  0.000151  0.001049  0.000171 -0.000096 -0.000537
  4N   1dx2y2    -0.013045 -0.000747 -0.005194 -0.000901  0.000480  0.003672
  4N   1dxy      -0.003752 -0.000305 -0.001720  0.000565 -0.001178 -0.008436
  4N   2dz2      -0.007072 -0.000475 -0.001452 -0.000056 -0.002160  0.001437
  4N   2dxz      -0.000262 -0.000016 -0.000107  0.000135 -0.000330 -0.001353
  4N   2dyz       0.002168  0.000152  0.000395 -0.000000  0.000667 -0.001122
  4N   2dx2y2    -0.010232 -0.000758 -0.001738  0.000158 -0.003547  0.007394
  4N   2dxy      -0.002936 -0.000172 -0.001223  0.001434 -0.003391 -0.014474
  4N   1f0       -0.000690 -0.000032 -0.000203 -0.000033  0.000029  0.000096
  4N   1f+1       0.000403  0.000037  0.000148 -0.000065  0.000115  0.001082
  4N   1f-1      -0.002870 -0.000138 -0.000846 -0.000134  0.000099  0.000267
  4N   1f+2      -0.000799 -0.000036 -0.000242 -0.000042  0.000041  0.000213
  4N   1f-2      -0.000211 -0.000019 -0.000082  0.000018 -0.000054 -0.000480
  4N   1f+3      -0.001336 -0.000118 -0.000510  0.000068 -0.000304 -0.002695
  4N   1f-3       0.002987  0.000126  0.000938  0.000178 -0.000191 -0.001287
  5C   1s        -0.001120  0.008755  0.009963 -0.083990 -0.034034 -0.019196
  5C   2s        -0.002306  0.018053  0.020933 -0.177671 -0.072351 -0.040982
  5C   3s         0.003128 -0.028819 -0.031782  0.274744  0.113267  0.066298
  5C   4s         0.003908 -0.012690 -0.032354  0.307628  0.135493  0.078199
  5C   5s        -0.008029  0.007661 -0.000484  0.062830  0.069321  0.046158
  5C   1pz       -0.000069 -0.000930  0.000451  0.000528  0.001188  0.001352
  5C   1px       -0.002088  0.013397  0.014678 -0.033439  0.056944  0.076383
  5C   1py       -0.000368 -0.011065  0.002778  0.006192  0.002967 -0.002697
  5C   2pz       -0.000033 -0.000280  0.000264  0.000500  0.001084  0.001056
  5C   2px       -0.001388 -0.000458  0.009824 -0.034515  0.033960  0.050236
  5C   2py        0.000101 -0.002956  0.001932  0.006094  0.006861 -0.000916
  5C   3pz       -0.000107  0.000061  0.000174  0.000044  0.000444  0.000640
  5C   3px        0.002814 -0.002141 -0.000953 -0.004119  0.001507  0.015124
  5C   3py       -0.000471 -0.000326  0.001347  0.001521  0.003417  0.004258
  5C   1dz2      -0.000097  0.000671  0.000631 -0.001633  0.001180  0.001680
  5C   1dxz       0.000004  0.000104 -0.000032 -0.000126 -0.000004  0.000145
  5C   1dyz      -0.000002 -0.000108  0.000020  0.000062  0.000123 -0.000043
  5C   1dx2y2     0.000225  0.000133 -0.001439  0.002088 -0.003788 -0.003247
  5C   1dxy      -0.000009  0.001103  0.000082 -0.001878  0.001092  0.002717
  5C   2dz2      -0.000783 -0.000731  0.000866 -0.004296 -0.001447  0.002572
[...]
  5C   1dx2y2     0.002017 -0.015622 -0.008934  0.001959  0.004853  0.002655
  5C   1dxy       0.007733  0.004535  0.010103  0.001782 -0.001283  0.007868
  5C   2dz2      -0.085206  0.061961  0.112136 -0.013623 -0.050332 -0.075715
  5C   2dxz       0.001702  0.002532  0.013035  0.000020 -0.001747  0.009322
  5C   2dyz       0.011166 -0.012695 -0.002424  0.003132  0.001176  0.013117
  5C   2dx2y2     0.007507  0.061810 -0.134346 -0.023187  0.097211  0.020554
  5C   2dxy       0.010247 -0.003077  0.182163  0.006671 -0.051660  0.086516
  5C   1f0        0.019159 -0.000296 -0.001898  0.001311 -0.000783  0.000194
  5C   1f+1       0.011175  0.023747  0.043802  0.000014  0.010544  0.008844
  5C   1f-1       0.134715  0.000680 -0.010224  0.008097 -0.004831  0.003754
  5C   1f+2       0.006569 -0.000184  0.005756  0.000381  0.000224 -0.001157
  5C   1f-2      -0.005098 -0.002160 -0.002840 -0.000635  0.000298 -0.000526
  5C   1f+3      -0.049724  0.001721  0.015246 -0.007211  0.012931  0.011427
  5C   1f-3       0.068915 -0.004391 -0.072671  0.005590 -0.008072  0.012483
  6O   1s         0.006895  0.012393  0.018412 -0.001628  0.004797 -1.396040
  6O   2s         0.000189  0.001479  0.005623  0.001257 -0.003897  1.729972
  6O   3s        -0.079583 -0.201945 -0.488893  0.005666 -0.016531 -1.869557
  6O   4s         0.238734  0.591477  1.768218 -0.045082  0.170448  2.833684
  6O   5s        -0.035286  0.054785  0.257383  0.104852 -0.015242 -1.055150
  6O   1pz        0.001752  0.005767  0.010533  0.000467 -0.000065  0.009231
  6O   1px       -0.027167  0.010409 -0.025501 -0.002334  0.002721 -0.009586
  6O   1py        0.017370  0.057531  0.109362  0.004708 -0.000995  0.094263
  6O   2pz       -0.008319 -0.038141 -0.109654 -0.000825 -0.004355 -0.066963
  6O   2px        0.144727 -0.051971  0.223360  0.010970 -0.026646  0.074650
  6O   2py       -0.088535 -0.381495 -1.132941 -0.008566 -0.041076 -0.684798
  6O   3pz        0.000033 -0.009866 -0.015221  0.000917  0.005465  0.001627
  6O   3px       -0.038284 -0.085816  0.078796 -0.034924  0.024754  0.017737
  6O   3py       -0.017164 -0.090594 -0.156644  0.018256  0.048272  0.020116
  6O   1dz2       0.002941 -0.001112 -0.018678  0.000119 -0.004515  0.004967
  6O   1dxz       0.001138 -0.001278  0.001804 -0.000061  0.000428  0.000585
  6O   1dyz      -0.000364 -0.001415  0.001895 -0.000006  0.001214 -0.002678
  6O   1dx2y2     0.001359  0.015380  0.014926 -0.000512 -0.003347  0.018481
  6O   1dxy       0.012746 -0.014284  0.011791 -0.000565  0.003984  0.004154
  6O   2dz2      -0.021571 -0.069429 -0.181641 -0.001477  0.019423 -0.081581
  6O   2dxz      -0.005390  0.004817 -0.018601  0.000144  0.000771 -0.004498
  6O   2dyz       0.003198  0.027537  0.073773  0.000392 -0.004816  0.030288
  6O   2dx2y2    -0.005151 -0.151507 -0.441683 -0.000101  0.014115 -0.165384
  6O   2dxy      -0.059202  0.050438 -0.170976  0.001823  0.009357 -0.040852
  6O   1f0        0.002766  0.008967  0.023399  0.000399 -0.002012  0.005422
  6O   1f+1       0.004433 -0.007480 -0.012638  0.000300  0.002957 -0.003097
  6O   1f-1       0.011076  0.036595  0.094500  0.001599 -0.008453  0.021911
  6O   1f+2       0.001154  0.010113  0.031815  0.000393 -0.001609  0.006658
  6O   1f-2      -0.001327  0.000609  0.010833 -0.000197 -0.001464  0.002020
  6O   1f+3      -0.002426 -0.002551  0.069747 -0.001481 -0.008948  0.012348
  6O   1f-3       0.004727 -0.032597 -0.140622 -0.000987  0.002702 -0.026198
  7H   1s         0.036713 -0.010224 -0.009582 -0.008142 -0.002111 -0.000558
  7H   2s         0.387063  0.000361  0.019078  0.077877 -0.001317  0.077222
  7H   3s         0.373422  0.062338 -0.025168  0.011205  0.084513 -0.021437
  7H   1pz        0.189692  0.004046 -0.025957  0.009763 -0.003053  0.005838
  7H   1px       -0.041909 -0.008523 -0.041858 -0.006034  0.005369 -0.006862
  7H   1py        0.131422 -0.003584  0.006741  0.005792 -0.004074  0.019904
  8H   1s         0.039496  0.017150 -0.006493  0.001505 -0.001101 -0.010610
  8H   2s         0.257340  0.136094 -0.020441  0.008445  0.031714 -0.077161
  8H   3s         0.225705 -0.036505 -0.149243 -0.033767  0.050593 -0.042868
  8H   1pz       -0.010157 -0.000683  0.002563 -0.000208 -0.000269 -0.000570
  8H   1px       -0.145940 -0.040974 -0.016559 -0.002412 -0.002406  0.014714
  8H   1py       -0.163816 -0.019613  0.045088 -0.007012 -0.001078  0.005216
  9H   1s         0.036934 -0.011360 -0.007886 -0.008131 -0.002151  0.000861
  9H   2s         0.389626  0.002580  0.022329  0.076237  0.006358  0.091161
  9H   3s         0.383699  0.070118 -0.012111  0.020520  0.079261 -0.018511
  9H   1pz       -0.173701 -0.003829  0.025871 -0.009822  0.000898 -0.005834
  9H   1px       -0.042557 -0.009832 -0.041942 -0.006015  0.004109 -0.008959
  9H   1py        0.151707 -0.002436  0.003419  0.006268 -0.003813  0.020950



                    ********************************
                    * MULLIKEN POPULATION ANALYSIS *
                    ********************************

-----------------------
MULLIKEN ATOMIC CHARGES
-----------------------
   0 C :   -0.160570
   1 H :    0.193162
   2 C :    0.243866
   3 N :    0.195169
   4 N :   -0.132166
   5 C :   -0.368829
   6 O :   -0.403063
   7 H :    0.147839
   8 H :    0.135320
   9 H :    0.149274
Sum of atomic charges:   -0.0000000

--------------------------------
MULLIKEN REDUCED ORBITAL CHARGES
--------------------------------
  0 C s       :     3.195104  s :     3.195104
      pz      :     1.223603  p :     2.875977
      px      :     0.966002
      py      :     0.686372
      dz2     :     0.006559  d :     0.080188
      dxz     :     0.004587
      dyz     :     0.018039
      dx2y2   :     0.030823
      dxy     :     0.020180
      f0      :     0.001713  f :     0.009301
      f+1     :     0.000811
      f-1     :     0.001387
      f+2     :     0.000715
      f-2     :     0.000412
      f+3     :     0.002133
      f-3     :     0.002131
  1 H s       :     0.783245  s :     0.783245
      pz      :     0.006350  p :     0.023594
      px      :     0.013374
      py      :     0.003871
  2 C s       :     3.145700  s :     3.145700
      pz      :     0.730412  p :     2.396076
      px      :     0.882370
      py      :     0.783294
      dz2     :     0.008844  d :     0.196608
      dxz     :     0.021218
      dyz     :     0.051718
      dx2y2   :     0.041664
      dxy     :     0.073162
      f0      :     0.002090  f :     0.017751
      f+1     :     0.000728
      f-1     :     0.001523
      f+2     :     0.002203
      f-2     :     0.001585
      f+3     :     0.006117
      f-3     :     0.003505
  3 N s       :     3.304742  s :     3.304742
      pz      :     1.199947  p :     3.381270
      px      :     1.158021
      py      :     1.023302
      dz2     :     0.005656  d :     0.109594
      dxz     :     0.001264
      dyz     :     0.059918
      dx2y2   :     0.012519
      dxy     :     0.030237
      f0      :     0.001314  f :     0.009225
      f+1     :     0.000261
      f-1     :     0.001099
      f+2     :     0.001843
      f-2     :     0.000214
      f+3     :     0.002800
      f-3     :     0.001693
  4 N s       :     3.903520  s :     3.903520
      pz      :     1.256538  p :     3.158978
      px      :     0.842561
      py      :     1.059879
      dz2     :     0.005119  d :     0.064804
      dxz     :     0.000640
      dyz     :     0.020666
      dx2y2   :     0.015035
      dxy     :     0.023345
      f0      :     0.000737  f :     0.004863
      f+1     :     0.000178
      f-1     :     0.000551
      f+2     :     0.000922
      f-2     :     0.000122
      f+3     :     0.001576
      f-3     :     0.000777
  5 C s       :     3.276567  s :     3.276567
      pz      :     1.057865  p :     3.049832
      px      :     0.936283
      py      :     1.055683
      dz2     :     0.003470  d :     0.039018
      dxz     :     0.006651
      dyz     :     0.009241
      dx2y2   :     0.009944
      dxy     :     0.009712
      f0      :     0.000227  f :     0.003413
      f+1     :     0.000074
      f-1     :     0.001200
      f+2     :     0.000109
      f-2     :     0.000170
      f+3     :     0.000930
      f-3     :     0.000703
  6 O s       :     3.800801  s :     3.800801
      pz      :     1.409926  p :     4.571641
      px      :     1.809613
      py      :     1.352102
      dz2     :     0.002596  d :     0.028892
      dxz     :     0.000308
      dyz     :     0.010156
      dx2y2   :     0.007951
      dxy     :     0.007881
      f0      :     0.000163  f :     0.001729
      f+1     :     0.000022
      f-1     :     0.000172
      f+2     :     0.000401
      f-2     :     0.000045
      f+3     :     0.000495
      f-3     :     0.000432
  7 H s       :     0.831027  s :     0.831027
      pz      :     0.010103  p :     0.021135
      px      :     0.004390
      py      :     0.006643
  8 H s       :     0.843102  s :     0.843102
      pz      :     0.004302  p :     0.021578
      px      :     0.008849
      py      :     0.008426
  9 H s       :     0.829552  s :     0.829552
      pz      :     0.009218  p :     0.021175
      px      :     0.004395
      py      :     0.007562


                     *******************************
                     * LOEWDIN POPULATION ANALYSIS *
                     *******************************

----------------------
LOEWDIN ATOMIC CHARGES
----------------------
   0 C :   -0.251323
   1 H :    0.166736
   2 C :   -0.385874
   3 N :    0.218860
   4 N :    0.041599
   5 C :   -0.259240
   6 O :    0.049234
   7 H :    0.141944
   8 H :    0.134800
   9 H :    0.143264

-------------------------------
LOEWDIN REDUCED ORBITAL CHARGES
-------------------------------
  0 C s       :     2.794412  s :     2.794412
      pz      :     1.107161  p :     3.020037
      px      :     1.020271
      py      :     0.892605
      dz2     :     0.034073  d :     0.379657
      dxz     :     0.014978
      dyz     :     0.065036
      dx2y2   :     0.145635
      dxy     :     0.119935
      f0      :     0.005336  f :     0.057216
      f+1     :     0.003687
      f-1     :     0.008067
      f+2     :     0.007287
      f-2     :     0.003091
      f+3     :     0.017174
      f-3     :     0.012573
  1 H s       :     0.768379  s :     0.768379
      pz      :     0.018138  p :     0.064885
      px      :     0.035791
      py      :     0.010955
  2 C s       :     2.766983  s :     2.766983
      pz      :     0.714455  p :     2.714575
      px      :     1.023887
      py      :     0.976232
      dz2     :     0.050425  d :     0.794266
      dxz     :     0.074669
      dyz     :     0.151632
      dx2y2   :     0.208897
      dxy     :     0.308643
      f0      :     0.007047  f :     0.110051
      f+1     :     0.004254
      f-1     :     0.010028
      f+2     :     0.016305
      f-2     :     0.009583
      f+3     :     0.041054
      f-3     :     0.021780
  3 N s       :     2.950751  s :     2.950751
      pz      :     1.074598  p :     3.406942
      px      :     1.038367
      py      :     1.293976
      dz2     :     0.028778  d :     0.397685
      dxz     :     0.004252
      dyz     :     0.191440
      dx2y2   :     0.075442
      dxy     :     0.097772
      f0      :     0.002499  f :     0.025762
      f+1     :     0.000450
      f-1     :     0.005005
      f+2     :     0.003779
      f-2     :     0.000470
      f+3     :     0.005779
      f-3     :     0.007780
  4 N s       :     3.369045  s :     3.369045
      pz      :     1.202449  p :     3.388383
      px      :     0.848325
      py      :     1.337609
      dz2     :     0.018227  d :     0.172067
      dxz     :     0.001488
      dyz     :     0.051920
      dx2y2   :     0.052194
      dxy     :     0.048238
      f0      :     0.003538  f :     0.028905
      f+1     :     0.000629
      f-1     :     0.004179
      f+2     :     0.005481
      f-2     :     0.000641
      f+3     :     0.007846
      f-3     :     0.006591
  5 C s       :     2.841556  s :     2.841556
      pz      :     1.071733  p :     3.175868
      px      :     1.030452
      py      :     1.073683
      dz2     :     0.034257  d :     0.218407
      dxz     :     0.024272
      dyz     :     0.049420
      dx2y2   :     0.044377
      dxy     :     0.066081
      f0      :     0.001459  f :     0.023409
      f+1     :     0.003250
      f-1     :     0.003766
      f+2     :     0.003409
      f-2     :     0.001481
      f+3     :     0.005731
      f-3     :     0.004313
  6 O s       :     3.404381  s :     3.404381
      pz      :     1.325548  p :     4.474224
      px      :     1.658091
      py      :     1.490585
      dz2     :     0.007322  d :     0.066294
      dxz     :     0.000416
      dyz     :     0.013207
      dx2y2   :     0.022746
      dxy     :     0.022603
      f0      :     0.000406  f :     0.005867
      f+1     :     0.000135
      f-1     :     0.000863
      f+2     :     0.000740
      f-2     :     0.000096
      f+3     :     0.001894
      f-3     :     0.001732
  7 H s       :     0.797298  s :     0.797298
      pz      :     0.029207  p :     0.060759
      px      :     0.012281
      py      :     0.019271
  8 H s       :     0.804948  s :     0.804948
      pz      :     0.012570  p :     0.060252
      px      :     0.022616
      py      :     0.025067
  9 H s       :     0.795995  s :     0.795995
      pz      :     0.026700  p :     0.060741
      px      :     0.012329
      py      :     0.021712


                      *****************************
                      * MAYER POPULATION ANALYSIS *
                      *****************************

  NA   - Mulliken gross atomic population
  ZA   - Total nuclear charge
  QA   - Mulliken gross atomic charge
  VA   - Mayer's total valence
  BVA  - Mayer's bonded valence
  FA   - Mayer's free valence

  ATOM       NA         ZA         QA         VA         BVA        FA
  0 C      6.1606     6.0000    -0.1606     3.5778     3.5778    -0.0000
  1 H      0.8068     1.0000     0.1932     0.9747     0.9747    -0.0000
  2 C      5.7561     6.0000     0.2439     4.1083     4.1083    -0.0000
  3 N      6.8048     7.0000     0.1952     3.6266     3.6266    -0.0000
  4 N      7.1322     7.0000    -0.1322     2.6471     2.6471    -0.0000
  5 C      6.3688     6.0000    -0.3688     3.7477     3.7477    -0.0000
  6 O      8.4031     8.0000    -0.4031     2.0707     2.0707     0.0000
  7 H      0.8522     1.0000     0.1478     0.9636     0.9636    -0.0000
  8 H      0.8647     1.0000     0.1353     0.9933     0.9933    -0.0000
  9 H      0.8507     1.0000     0.1493     0.9635     0.9635    -0.0000

  Mayer bond orders larger than 0.100000
B(  0-C ,  1-H ) :   0.9179 B(  0-C ,  2-C ) :   1.1133 B(  0-C ,  3-N ) :   1.3216 
B(  0-C ,  4-N ) :   0.2578 B(  2-C ,  5-C ) :   0.9614 B(  2-C ,  6-O ) :   1.9393 
B(  3-N ,  4-N ) :   2.2247 B(  5-C ,  7-H ) :   0.9404 B(  5-C ,  8-H ) :   0.9712 
B(  5-C ,  9-H ) :   0.9390 

-------
TIMINGS
-------

Total SCF time: 0 days 0 hours 1 min 7 sec 

Total time                  ....      67.957 sec
Sum of individual times     ....      67.671 sec  ( 99.6%)

Fock matrix formation       ....      66.271 sec  ( 97.5%)
  Split-RI-J                ....       3.506 sec  (  5.3% of F)
  Chain of spheres X        ....      47.206 sec  ( 71.2% of F)
  XC integration            ....       9.904 sec  ( 14.9% of F)
    Basis function eval.    ....       3.042 sec  ( 30.7% of XC)
    Density eval.           ....       2.554 sec  ( 25.8% of XC)
    XC-Functional eval.     ....       0.371 sec  (  3.7% of XC)
    XC-Potential eval.      ....       3.351 sec  ( 33.8% of XC)
Diagonalization             ....       0.046 sec  (  0.1%)
Density matrix formation    ....       0.006 sec  (  0.0%)
Population analysis         ....       0.025 sec  (  0.0%)
Initial guess               ....       0.281 sec  (  0.4%)
Orbital Transformation      ....       0.000 sec  (  0.0%)
Orbital Orthonormalization  ....       0.000 sec  (  0.0%)
DIIS solution               ....       0.012 sec  (  0.0%)
SOSCF solution              ....       0.032 sec  (  0.0%)
Grid generation             ....       0.997 sec  (  1.5%)

Maximum memory used throughout the entire SCF-calculation: 115.6 MB


-------------------------------------------------------------------------------
                          DFT DISPERSION CORRECTION                            
                                                                               
                              DFTD3 V3.1  Rev 1                                
                          USING Becke-Johnson damping                          
-------------------------------------------------------------------------------
The B3LYP functional is recognized
Active option DFTDOPT                   ...         4   

molecular C6(AA) [au] = 1157.229686 


            DFT-D V3
 parameters
 s6 scaling factor         :     1.0000 
 a1 scaling factor         :     0.3981 
 s8 scaling factor         :     1.9889 
 a2 scaling factor         :     4.4211 
 ad hoc parameters k1-k3   :    16.0000     1.3333    -4.0000 

 Edisp/kcal,au: -8.207036331911  -0.013078743502 
 E6   /kcal   :  -3.893183700 
 E8   /kcal   :  -4.313852632 
 % E8         :  52.562855304 

-------------------------   ----------------
Dispersion correction           -0.013078744
-------------------------   ----------------


-------------------------   --------------------
FINAL SINGLE POINT ENERGY      -301.381482509299
-------------------------   --------------------


                            ***************************************
                            *     ORCA property calculations      *
                            ***************************************

                                    ---------------------
                                    Active property flags
                                    ---------------------
   (+) Dipole Moment


------------------------------------------------------------------------------
                       ORCA ELECTRIC PROPERTIES CALCULATION
------------------------------------------------------------------------------

Dipole Moment Calculation                       ... on
Quadrupole Moment Calculation                   ... off
Polarizability Calculation                      ... off
GBWName                                         ... ketone_c02_sp.gbw
Electron density                                ... ketone_c02_sp.scfp
The origin for moment calculation is the CENTER OF MASS  = ( 1.165826, -1.523473 -0.018793)

-------------
DIPOLE MOMENT
-------------
                                X             Y             Z
Electronic contribution:     -3.85393      -2.08422      -0.25953
Nuclear contribution   :      3.82253       0.81688       0.13757
                        -----------------------------------------
Total Dipole Moment    :     -0.03141      -1.26734      -0.12195
                        -----------------------------------------
Magnitude (a.u.)       :      1.27358
Magnitude (Debye)      :      3.23718



--------------------
Rotational spectrum 
--------------------
 
Rotational constants in cm-1:     0.292459     0.081957     0.064800 
Rotational constants in MHz :  8767.713023  2457.005652  1942.651563 

 Dipole components along the rotational axes: 
x,y,z [a.u.] :    -1.215215     0.381119     0.002783 
x,y,z [Debye]:    -3.088832     0.968728     0.007073 

 

Timings for individual modules:

Sum of individual times         ...       68.263 sec (=   1.138 min)
GTO integral calculation        ...        0.241 sec (=   0.004 min)   0.4 %
SCF iterations                  ...       68.022 sec (=   1.134 min)  99.6 %
                             ****ORCA TERMINATED NORMALLY****
TOTAL RUN TIME: 0 days 0 hours 1 minutes 8 seconds 601 msec
