
                                 *****************
                                 * O   R   C   A *
                                 *****************

                                            #,                                       
                                            ###                                      
                                            ####                                     
                                            #####                                    
                                            ######                                   
                                           ########,                                 
                                     ,,################,,,,,                         
                               ,,#################################,,                 
                          ,,##########################################,,             
                       ,#########################################, ''#####,          
                    ,#############################################,,   '####,        
                  ,##################################################,,,,####,       
                ,###########''''           ''''###############################       
              ,#####''   ,,,,##########,,,,          '''####'''          '####       
            ,##' ,,,,###########################,,,                        '##       
           ' ,,###''''                  '''############,,,                           
         ,,##''                                '''############,,,,        ,,,,,,###''
      ,#''                                            '''#######################'''  
     '                                                          ''''####''''         
             ,#######,   #######,   ,#######,      ##                                
            ,#'     '#,  ##    ##  ,#'     '#,    #''#        ######   ,####,        
            ##       ##  ##   ,#'  ##            #'  '#       #        #'  '#        
            ##       ##  #######   ##           ,######,      #####,   #    #        
            '#,     ,#'  ##    ##  '#,     ,#' ,#      #,         ##   #,  ,#        
             '#######'   ##     ##  '#######'  #'      '#     #####' # '####'        



                  #######################################################
                  #                        -***-                        #
                  #          Department of theory and spectroscopy      #
                  #    Directorship and core code : Frank Neese         #
                  #        Max Planck Institute fuer Kohlenforschung    #
                  #                Kaiser Wilhelm Platz 1               #
                  #                 D-45470 Muelheim/Ruhr               #
                  #                      Germany                        #
                  #                                                     #
                  #                  All rights reserved                #
                  #                        -***-                        #
                  #######################################################


                         Program Version 5.0.3 -  RELEASE  -


 With contributions from (in alphabetic order):
   Daniel Aravena         : Magnetic Suceptibility
   Michael Atanasov       : Ab Initio Ligand Field Theory (pilot matlab implementation)
   Alexander A. Auer      : GIAO ZORA, VPT2 properties, NMR spectrum
   Ute Becker             : Parallelization
   Giovanni Bistoni       : ED, misc. LED, open-shell LED, HFLD
   Martin Brehm           : Molecular dynamics
   Dmytro Bykov           : SCF Hessian
   Vijay G. Chilkuri      : MRCI spin determinant printing, contributions to CSF-ICE
   Dipayan Datta          : RHF DLPNO-CCSD density
   Achintya Kumar Dutta   : EOM-CC, STEOM-CC
   Dmitry Ganyushin       : Spin-Orbit,Spin-Spin,Magnetic field MRCI
   Miquel Garcia          : C-PCM and meta-GGA Hessian, CC/C-PCM, Gaussian charge scheme
   Yang Guo               : DLPNO-NEVPT2, F12-NEVPT2, CIM, IAO-localization
   Andreas Hansen         : Spin unrestricted coupled pair/coupled cluster methods
   Benjamin Helmich-Paris : MC-RPA, TRAH-SCF, COSX integrals
   Lee Huntington         : MR-EOM, pCC
   Robert Izsak           : Overlap fitted RIJCOSX, COSX-SCS-MP3, EOM
   Marcus Kettner         : VPT2
   Christian Kollmar      : KDIIS, OOCD, Brueckner-CCSD(T), CCSD density, CASPT2, CASPT2-K
   Simone Kossmann        : Meta GGA functionals, TD-DFT gradient, OOMP2, MP2 Hessian
   Martin Krupicka        : Initial AUTO-CI
   Lucas Lang             : DCDCAS
   Marvin Lechner         : AUTO-CI (C++ implementation), FIC-MRCC
   Dagmar Lenk            : GEPOL surface, SMD
   Dimitrios Liakos       : Extrapolation schemes; Compound Job, initial MDCI parallelization
   Dimitrios Manganas     : Further ROCIS development; embedding schemes
   Dimitrios Pantazis     : SARC Basis sets
   Anastasios Papadopoulos: AUTO-CI, single reference methods and gradients
   Taras Petrenko         : DFT Hessian,TD-DFT gradient, ASA, ECA, R-Raman, ABS, FL, XAS/XES, NRVS
   Peter Pinski           : DLPNO-MP2, DLPNO-MP2 Gradient
   Christoph Reimann      : Effective Core Potentials
   Marius Retegan         : Local ZFS, SOC
   Christoph Riplinger    : Optimizer, TS searches, QM/MM, DLPNO-CCSD(T), (RO)-DLPNO pert. Triples
   Tobias Risthaus        : Range-separated hybrids, TD-DFT gradient, RPA, STAB
   Michael Roemelt        : Original ROCIS implementation
   Masaaki Saitow         : Open-shell DLPNO-CCSD energy and density
   Barbara Sandhoefer     : DKH picture change effects
   Avijit Sen             : IP-ROCIS
   Kantharuban Sivalingam : CASSCF convergence, NEVPT2, FIC-MRCI
   Bernardo de Souza      : ESD, SOC TD-DFT
   Georgi Stoychev        : AutoAux, RI-MP2 NMR, DLPNO-MP2 response
   Willem Van den Heuvel  : Paramagnetic NMR
   Boris Wezisla          : Elementary symmetry handling
   Frank Wennmohs         : Technical directorship


 We gratefully acknowledge several colleagues who have allowed us to
 interface, adapt or use parts of their codes:
   Stefan Grimme, W. Hujo, H. Kruse, P. Pracht,  : VdW corrections, initial TS optimization,
                  C. Bannwarth, S. Ehlert          DFT functionals, gCP, sTDA/sTD-DF
   Ed Valeev, F. Pavosevic, A. Kumar             : LibInt (2-el integral package), F12 methods
   Garnet Chan, S. Sharma, J. Yang, R. Olivares  : DMRG
   Ulf Ekstrom                                   : XCFun DFT Library
   Mihaly Kallay                                 : mrcc  (arbitrary order and MRCC methods)
   Jiri Pittner, Ondrej Demel                    : Mk-CCSD
   Frank Weinhold                                : gennbo (NPA and NBO analysis)
   Christopher J. Cramer and Donald G. Truhlar   : smd solvation model
   Lars Goerigk                                  : TD-DFT with DH, B97 family of functionals
   V. Asgeirsson, H. Jonsson                     : NEB implementation
   FAccTs GmbH                                   : IRC, NEB, NEB-TS, DLPNO-Multilevel, CI-OPT
                                                   MM, QMMM, 2- and 3-layer-ONIOM, Crystal-QMMM,
                                                   LR-CPCM, SF, NACMEs, symmetry and pop. for TD-DFT,
                                                   nearIR, NL-DFT gradient (VV10), updates on ESD,
                                                   ML-optimized integration grids
   S Lehtola, MJT Oliveira, MAL Marques          : LibXC Library
   Liviu Ungur et al                             : ANISO software


 Your calculation uses the libint2 library for the computation of 2-el integrals
 For citations please refer to: http://libint.valeyev.net

 Your ORCA version has been built with support for libXC version: 5.1.0
 For citations please refer to: https://tddft.org/programs/libxc/

 This ORCA versions uses:
   CBLAS   interface :  Fast vector & matrix operations
   LAPACKE interface :  Fast linear algebra routines
   SCALAPACK package :  Parallel linear algebra routines
   Shared memory     :  Shared parallel matrices


Your calculation utilizes the atom-pairwise dispersion correction
with the Becke-Johnson damping scheme (D3BJ)
Cite in your paper:
S.Grimme, S.Ehrlich, L.Goerigk, J Comput Chem, (2011), 32, 1456–1465 
S.Grimme, J.Antony, S.Ehrlich and H.Krieg, J.Chem.Phys., 132, (2010), 154104 
   

================================================================================

----- Orbital basis set information -----
Your calculation utilizes the basis: def2-SVP
   F. Weigend and R. Ahlrichs, Phys. Chem. Chem. Phys. 7, 3297 (2005).

----- AuxJ basis set information -----
Your calculation utilizes the auxiliary basis: def2/J
   F. Weigend, Phys. Chem. Chem. Phys. 8, 1057 (2006).

================================================================================
                                        WARNINGS
                       Please study these warnings very carefully!
================================================================================


WARNING: Geometry Optimization
  ===> : Switching off AutoStart
         For restart on a previous wavefunction, please use MOREAD

INFO   : the flag for use of the SHARK integral package has been found!

================================================================================
                                       INPUT FILE
================================================================================
NAME = ketone_c02.inp
|  1> ! b3lyp d3bj def2-svp Freq Opt tightscf cpcm(CH2Cl2)
|  2> %pal
|  3>     nprocs 1
|  4> end
|  5> %MaxCore 1000
|  6> %freq
|  7>     Temp    298.15
|  8> end
|  9> 
| 10> *xyz 0 1
| 11> C    -0.242400  -0.772000   0.003000
| 12> H    -1.238582  -0.354812   0.002214
| 13> C     0.864100   0.070300   0.000700
| 14> N    -0.084006  -2.011903   0.010975
| 15> N     0.058410  -3.126740   0.018219
| 16> C     2.254200  -0.511800  -0.002200
| 17> O     0.710000   1.276700   0.001000
| 18> H     2.587100  -0.652200  -1.030600
| 19> H     2.934100   0.168800   0.510200
| 20> H     2.246600  -1.473000   0.511600
| 21> *
| 22> 
| 23> 
| 24> 
| 25> 
| 26> 
| 27> 
| 28> 
| 29>                          ****END OF INPUT****
================================================================================

                       *****************************
                       * Geometry Optimization Run *
                       *****************************

Geometry optimization settings:
Update method            Update   .... BFGS
Choice of coordinates    CoordSys .... Z-matrix Internals
Initial Hessian          InHess   .... Almoef's Model

Convergence Tolerances:
Energy Change            TolE     ....  5.0000e-06 Eh
Max. Gradient            TolMAXG  ....  3.0000e-04 Eh/bohr
RMS Gradient             TolRMSG  ....  1.0000e-04 Eh/bohr
Max. Displacement        TolMAXD  ....  4.0000e-03 bohr
RMS Displacement         TolRMSD  ....  2.0000e-03 bohr
Strict Convergence                ....  False
------------------------------------------------------------------------------
                        ORCA OPTIMIZATION COORDINATE SETUP
------------------------------------------------------------------------------

The optimization will be done in new redundant internal coordinates
Making redundant internal coordinates   ...  (new redundants) done
Evaluating the initial hessian          ...  (Almloef) done
Evaluating the coordinates              ...  done
Calculating the B-matrix                .... done
Calculating the G-matrix                .... done
Diagonalizing the G-matrix              .... done
The first mode is                       ....    9
The number of degrees of freedom        ....   24

    -----------------------------------------------------------------
                    Redundant Internal Coordinates


    -----------------------------------------------------------------
         Definition                    Initial Value    Approx d2E/dq
    -----------------------------------------------------------------
      1. B(H   1,C   0)                  1.0800         0.373559   
      2. B(C   2,C   0)                  1.3906         0.623381   
      3. B(N   3,C   0)                  1.2500         0.935899   
      4. B(N   4,N   3)                  1.1239         1.332067   
      5. B(C   5,C   2)                  1.5071         0.406423   
      6. B(O   6,C   2)                  1.2162         1.059641   
      7. B(H   7,C   5)                  1.0900         0.360075   
      8. B(H   8,C   5)                  1.0900         0.360140   
      9. B(H   9,C   5)                  1.0899         0.360189   
     10. A(H   1,C   0,C   2)          119.9971         0.355438   
     11. A(H   1,C   0,N   3)          120.0029         0.378701   
     12. A(C   2,C   0,N   3)          119.9995         0.465120   
     13. A(C   0,C   2,O   6)          120.0001         0.475841   
     14. A(C   0,C   2,C   5)          119.9993         0.402996   
     15. A(C   5,C   2,O   6)          120.0006         0.440143   
     16. L(C   0,N   3,N   4,C   2, 2) 179.9929         0.528255   
     17. L(C   0,N   3,N   4,C   2, 1) 180.0001         0.528255   
     18. A(H   8,C   5,H   9)          109.4759         0.290856   
     19. A(H   7,C   5,H   9)          109.4689         0.290848   
     20. A(C   2,C   5,H   9)          109.4686         0.328864   
     21. A(H   7,C   5,H   8)          109.4784         0.290841   
     22. A(C   2,C   5,H   8)          109.4681         0.328857   
     23. A(C   2,C   5,H   7)          109.4675         0.328847   
     24. D(O   6,C   2,C   0,N   3)   -179.5616         0.026908   
     25. D(O   6,C   2,C   0,H   1)      0.1739         0.026908   
     26. D(C   5,C   2,C   0,H   1)   -179.8245         0.026908   
     27. D(C   5,C   2,C   0,N   3)      0.4400         0.026908   
     28. D(H   7,C   5,C   2,O   6)    -90.0040         0.012242   
     29. D(H   8,C   5,C   2,C   0)   -150.0010         0.012242   
     30. D(H   7,C   5,C   2,C   0)     89.9944         0.012242   
     31. D(H   9,C   5,C   2,C   0)    -29.9988         0.012242   
     32. D(H   9,C   5,C   2,O   6)    150.0028         0.012242   
     33. D(H   8,C   5,C   2,O   6)     30.0006         0.012242   
    -----------------------------------------------------------------

Number of atoms                         .... 10
Number of degrees of freedom            .... 33

         *************************************************************
         *                GEOMETRY OPTIMIZATION CYCLE   1            *
         *************************************************************
---------------------------------
CARTESIAN COORDINATES (ANGSTROEM)
---------------------------------
  C     -0.242400   -0.772000    0.003000
  H     -1.238582   -0.354812    0.002214
  C      0.864100    0.070300    0.000700
  N     -0.084006   -2.011903    0.010975
  N      0.058410   -3.126740    0.018219
  C      2.254200   -0.511800   -0.002200
  O      0.710000    1.276700    0.001000
  H      2.587100   -0.652200   -1.030600
  H      2.934100    0.168800    0.510200
  H      2.246600   -1.473000    0.511600

----------------------------
CARTESIAN COORDINATES (A.U.)
----------------------------
  NO LB      ZA    FRAG     MASS         X           Y           Z
   0 C     6.0000    0    12.011   -0.458070   -1.458869    0.005669
   1 H     1.0000    0     1.008   -2.340581   -0.670498    0.004184
   2 C     6.0000    0    12.011    1.632912    0.132848    0.001323
   3 N     7.0000    0    14.007   -0.158748   -3.801946    0.020740
   4 N     7.0000    0    14.007    0.110379   -5.908682    0.034429
   5 C     6.0000    0    12.011    4.259821   -0.967162   -0.004157
   6 O     8.0000    0    15.999    1.341706    2.412613    0.001890
   7 H     1.0000    0     1.008    4.888910   -1.232479   -1.947552
   8 H     1.0000    0     1.008    5.544645    0.318986    0.964138
   9 H     1.0000    0     1.008    4.245459   -2.783567    0.966784

--------------------------------
INTERNAL COORDINATES (ANGSTROEM)
--------------------------------
 C      0   0   0     0.000000000000     0.00000000     0.00000000
 H      1   0   0     1.080011584319     0.00000000     0.00000000
 C      1   2   0     1.390617427620   119.99712163     0.00000000
 N      1   2   3     1.250004683699   120.00286218   179.73545843
 N      4   1   2     1.123920072408   179.99625677   271.07819916
 C      3   1   2     1.507059000172   119.99931291   180.17545127
 O      3   1   2     1.216202228250   120.00009283     0.17388508
 H      6   3   1     1.090018866809   109.46749321    89.99438827
 H      6   3   1     1.089969783985   109.46811963   209.99900753
 H      6   3   1     1.089932860318   109.46858267   330.00118698

---------------------------
INTERNAL COORDINATES (A.U.)
---------------------------
 C      0   0   0     0.000000000000     0.00000000     0.00000000
 H      1   0   0     2.040926115826     0.00000000     0.00000000
 C      1   2   0     2.627886095260   119.99712163     0.00000000
 N      1   2   3     2.362166518310   120.00286218   179.73545843
 N      4   1   2     2.123901133268   179.99625677   271.07819916
 C      3   1   2     2.847928777987   119.99931291   180.17545127
 O      3   1   2     2.298289134857   120.00009283     0.17388508
 H      6   3   1     2.059837139077   109.46749321    89.99438827
 H      6   3   1     2.059744385981   109.46811963   209.99900753
 H      6   3   1     2.059674610362   109.46858267   330.00118698

---------------------
BASIS SET INFORMATION
---------------------
There are 4 groups of distinct atoms

 Group   1 Type C   : 7s4p1d contracted to 3s2p1d pattern {511/31/1}
 Group   2 Type H   : 4s1p contracted to 2s1p pattern {31/1}
 Group   3 Type N   : 7s4p1d contracted to 3s2p1d pattern {511/31/1}
 Group   4 Type O   : 7s4p1d contracted to 3s2p1d pattern {511/31/1}

Atom   0C    basis set group =>   1
Atom   1H    basis set group =>   2
Atom   2C    basis set group =>   1
Atom   3N    basis set group =>   3
Atom   4N    basis set group =>   3
Atom   5C    basis set group =>   1
Atom   6O    basis set group =>   4
Atom   7H    basis set group =>   2
Atom   8H    basis set group =>   2
Atom   9H    basis set group =>   2
---------------------------------
AUXILIARY/J BASIS SET INFORMATION
---------------------------------
There are 4 groups of distinct atoms

 Group   1 Type C   : 12s5p4d2f1g contracted to 6s4p3d1f1g pattern {711111/2111/211/2/1}
 Group   2 Type H   : 5s2p1d contracted to 3s1p1d pattern {311/2/1}
 Group   3 Type N   : 12s5p4d2f1g contracted to 6s4p3d1f1g pattern {711111/2111/211/2/1}
 Group   4 Type O   : 12s5p4d2f1g contracted to 6s4p3d1f1g pattern {711111/2111/211/2/1}

Atom   0C    basis set group =>   1
Atom   1H    basis set group =>   2
Atom   2C    basis set group =>   1
Atom   3N    basis set group =>   3
Atom   4N    basis set group =>   3
Atom   5C    basis set group =>   1
Atom   6O    basis set group =>   4
Atom   7H    basis set group =>   2
Atom   8H    basis set group =>   2
Atom   9H    basis set group =>   2
------------------------------------------------------------------------------
                           ORCA GTO INTEGRAL CALCULATION
                           -- RI-GTO INTEGRALS CHOSEN --
------------------------------------------------------------------------------
------------------------------------------------------------------------------
                   ___                                                        
                  /   \      - P O W E R E D   B Y -                         
                 /     \                                                     
                 |  |  |   _    _      __       _____    __    __             
                 |  |  |  | |  | |    /  \     |  _  \  |  |  /  |          
                  \  \/   | |  | |   /    \    | | | |  |  | /  /          
                 / \  \   | |__| |  /  /\  \   | |_| |  |  |/  /          
                |  |  |   |  __  | /  /__\  \  |    /   |      \           
                |  |  |   | |  | | |   __   |  |    \   |  |\   \          
                \     /   | |  | | |  |  |  |  | |\  \  |  | \   \       
                 \___/    |_|  |_| |__|  |__|  |_| \__\ |__|  \__/        
                                                                              
                      - O R C A' S   B I G   F R I E N D -                    
                                      &                                       
                       - I N T E G R A L  F E E D E R -                       
                                                                              
 v1 FN, 2020, v2 2021                                                         
------------------------------------------------------------------------------


Reading SHARK input file ketone_c02.SHARKINP.tmp ... ok
----------------------
SHARK INTEGRAL PACKAGE
----------------------

Number of atoms                             ...     10
Number of basis functions                   ...    104
Number of shells                            ...     48
Maximum angular momentum                    ...      2
Integral batch strategy                     ... SHARK/LIBINT Hybrid
RI-J (if used) integral strategy            ... SPLIT-RIJ (Revised 2003 algorithm where possible)
Printlevel                                  ...      1
Contraction scheme used                     ... SEGMENTED contraction
Coulomb Range Separation                    ... NOT USED
Exchange Range Separation                   ... NOT USED
Finite Nucleus Model                        ... NOT USED
Auxiliary Coulomb fitting basis             ... AVAILABLE
   # of basis functions in Aux-J            ...    338
   # of shells in Aux-J                     ...    110
   Maximum angular momentum in Aux-J        ...      4
Auxiliary J/K fitting basis                 ... NOT available
Auxiliary Correlation fitting basis         ... NOT available
Auxiliary 'external' fitting basis          ... NOT available
Integral threshold                          ...     2.500000e-11
Primitive cut-off                           ...     2.500000e-12
Primitive pair pre-selection threshold      ...     2.500000e-12

Calculating pre-screening integrals         ... done (  0.0 sec) Dimension = 48
Organizing shell pair data                  ... done (  0.0 sec)
Shell pair information
Total number of shell pairs                 ...      1176
Shell pairs after pre-screening             ...      1142
Total number of primitive shell pairs       ...      4368
Primitive shell pairs kept                  ...      3293
          la=0 lb=0:    337 shell pairs
          la=1 lb=0:    407 shell pairs
          la=1 lb=1:    135 shell pairs
          la=2 lb=0:    149 shell pairs
          la=2 lb=1:     94 shell pairs
          la=2 lb=2:     20 shell pairs

Calculating one electron integrals          ... done (  0.0 sec)
Calculating RI/J V-Matrix + Cholesky decomp.... done (  0.0 sec)
Calculating Nuclear repulsion               ... done (  0.0 sec) ENN=    212.448618866904 Eh

SHARK setup successfully completed in   0.1 seconds

Maximum memory used throughout the entire GTOINT-calculation: 12.0 MB
-------------------------------------------------------------------------------
                                 ORCA SCF
-------------------------------------------------------------------------------

------------
SCF SETTINGS
------------
Hamiltonian:
 Density Functional     Method          .... DFT(GTOs)
 Exchange Functional    Exchange        .... B88
   X-Alpha parameter    XAlpha          ....  0.666667
   Becke's b parameter  XBeta           ....  0.004200
 Correlation Functional Correlation     .... LYP
 LDA part of GGA corr.  LDAOpt          .... VWN-5
 Gradients option       PostSCFGGA      .... off
 Hybrid DFT is turned on
   Fraction HF Exchange ScalHFX         ....  0.200000
   Scaling of DF-GGA-X  ScalDFX         ....  0.720000
   Scaling of DF-GGA-C  ScalDFC         ....  0.810000
   Scaling of DF-LDA-C  ScalLDAC        ....  1.000000
   Perturbative correction              ....  0.000000
   Density functional embedding theory  .... OFF
   NL short-range parameter             ....  4.800000
 RI-approximation to the Coulomb term is turned on
   Number of AuxJ basis functions       .... 338
   RIJ-COSX (HFX calculated with COS-X)).... on


General Settings:
 Integral files         IntName         .... ketone_c02
 Hartree-Fock type      HFTyp           .... RHF
 Total Charge           Charge          ....    0
 Multiplicity           Mult            ....    1
 Number of Electrons    NEL             ....   44
 Basis Dimension        Dim             ....  104
 Nuclear Repulsion      ENuc            ....    212.4486188669 Eh

Convergence Acceleration:
 DIIS                   CNVDIIS         .... on
   Start iteration      DIISMaxIt       ....    12
   Startup error        DIISStart       ....  0.200000
   # of expansion vecs  DIISMaxEq       ....     5
   Bias factor          DIISBfac        ....   1.050
   Max. coefficient     DIISMaxC        ....  10.000
 Trust-Rad. Augm. Hess. CNVTRAH         .... auto
   Auto Start mean grad. ratio tolernc. ....  1.125000
   Auto Start start iteration           ....    20
   Auto Start num. interpolation iter.  ....    10
   Max. Number of Micro iterations      ....    16
   Max. Number of Macro iterations      .... Maxiter - #DIIS iter
   Number of Davidson start vectors     ....     2
   Converg. threshold I  (grad. norm)   ....   1.000e-05
   Converg. threshold II (energy diff.) ....   1.000e-08
   Grad. Scal. Fac. for Micro threshold ....   0.100
   Minimum threshold for Micro iter.    ....   0.010
   NR start threshold (gradient norm)   ....   0.001
   Initial trust radius                 ....   0.400
   Minimum AH scaling param. (alpha)    ....   1.000
   Maximum AH scaling param. (alpha)    .... 1000.000
   Orbital update algorithm             .... Taylor
   White noise on init. David. guess    .... on
   Maximum white noise                  ....   0.010
   Quad. conv. algorithm                .... NR
 SOSCF                  CNVSOSCF        .... on
   Start iteration      SOSCFMaxIt      ....   150
   Startup grad/error   SOSCFStart      ....  0.003300
 Level Shifting         CNVShift        .... on
   Level shift para.    LevelShift      ....    0.2500
   Turn off err/grad.   ShiftErr        ....    0.0010
 Zerner damping         CNVZerner       .... off
 Static damping         CNVDamp         .... on
   Fraction old density DampFac         ....    0.7000
   Max. Damping (<1)    DampMax         ....    0.9800
   Min. Damping (>=0)   DampMin         ....    0.0000
   Turn off err/grad.   DampErr         ....    0.1000
 Fernandez-Rico         CNVRico         .... off

SCF Procedure:
 Maximum # iterations   MaxIter         ....   125
 SCF integral mode      SCFMode         .... Direct
   Integral package                     .... SHARK and LIBINT hybrid scheme
 Reset frequency        DirectResetFreq ....    20
 Integral Threshold     Thresh          ....  2.500e-11 Eh
 Primitive CutOff       TCut            ....  2.500e-12 Eh

Convergence Tolerance:
 Convergence Check Mode ConvCheckMode   .... Total+1el-Energy
 Convergence forced     ConvForced      .... 0
 Energy Change          TolE            ....  1.000e-08 Eh
 1-El. energy change                    ....  1.000e-05 Eh
 Orbital Gradient       TolG            ....  1.000e-05
 Orbital Rotation angle TolX            ....  1.000e-05
 DIIS Error             TolErr          ....  5.000e-07


Diagonalization of the overlap matrix:
Smallest eigenvalue                        ... 1.798e-03
Time for diagonalization                   ...    0.001 sec
Threshold for overlap eigenvalues          ... 1.000e-08
Number of eigenvalues below threshold      ... 0
Time for construction of square roots      ...    0.001 sec
Total time needed                          ...    0.003 sec

Time for model grid setup =    0.069 sec

------------------------------
INITIAL GUESS: MODEL POTENTIAL
------------------------------
Loading Hartree-Fock densities                     ... done
Calculating cut-offs                               ... done
Initializing the effective Hamiltonian             ... done
Setting up the integral package (SHARK)            ... done
Starting the Coulomb interaction                   ... done (   0.0 sec)
Reading the grid                                   ... done
Mapping shells                                     ... done
Starting the XC term evaluation                    ... done (   0.1 sec)
  promolecular density results
     # of electrons  =     43.997412870
     EX              =    -37.952275983
     EC              =     -1.507865974
     EX+EC           =    -39.460141957
Transforming the Hamiltonian                       ... done (   0.0 sec)
Diagonalizing the Hamiltonian                      ... done (   0.0 sec)
Back transforming the eigenvectors                 ... done (   0.0 sec)
Now organizing SCF variables                       ... done
                      ------------------
                      INITIAL GUESS DONE (   0.2 sec)
                      ------------------
-------------------
DFT GRID GENERATION
-------------------

General Integration Accuracy     IntAcc      ... 4.388
Radial Grid Type                 RadialGrid  ... OptM3 with GC (2021)
Angular Grid (max. ang.)         AngularGrid ... 4 (Lebedev-302)
Angular grid pruning method      GridPruning ... 4 (adaptive)
Weight generation scheme         WeightScheme... Becke
Basis function cutoff            BFCut       ... 1.0000e-11
Integration weight cutoff        WCut        ... 1.0000e-14
Angular grids for H and He will be reduced by one unit
Partially contracted basis set               ... off
Rotationally invariant grid construction     ... off

Total number of grid points                  ...    49369
Total number of batches                      ...      775
Average number of points per batch           ...       63
Average number of grid points per atom       ...     4937
Time for grid setup =    0.302 sec

--------------------
COSX GRID GENERATION
--------------------

GRIDX 1
-------
General Integration Accuracy     IntAcc      ... 3.816
Radial Grid Type                 RadialGrid  ... OptM3 with GC (2021)
Angular Grid (max. ang.)         AngularGrid ... 1 (Lebedev-50)
Angular grid pruning method      GridPruning ... 4 (adaptive)
Weight generation scheme         WeightScheme... Becke
Basis function cutoff            BFCut       ... 1.0000e-11
Integration weight cutoff        WCut        ... 1.0000e-14
Angular grids for H and He will be reduced by one unit
Partially contracted basis set               ... on
Rotationally invariant grid construction     ... off

Total number of grid points                  ...     6308
Total number of batches                      ...      104
Average number of points per batch           ...       60
Average number of grid points per atom       ...      631
UseSFitting                                  ... on

GRIDX 2
-------
General Integration Accuracy     IntAcc      ... 4.020
Radial Grid Type                 RadialGrid  ... OptM3 with GC (2021)
Angular Grid (max. ang.)         AngularGrid ... 2 (Lebedev-110)
Angular grid pruning method      GridPruning ... 4 (adaptive)
Weight generation scheme         WeightScheme... Becke
Basis function cutoff            BFCut       ... 1.0000e-11
Integration weight cutoff        WCut        ... 1.0000e-14
Angular grids for H and He will be reduced by one unit
Partially contracted basis set               ... on
Rotationally invariant grid construction     ... off

Total number of grid points                  ...    14112
Total number of batches                      ...      228
Average number of points per batch           ...       61
Average number of grid points per atom       ...     1411
UseSFitting                                  ... on

GRIDX 3
-------
General Integration Accuracy     IntAcc      ... 4.338
Radial Grid Type                 RadialGrid  ... OptM3 with GC (2021)
Angular Grid (max. ang.)         AngularGrid ... 3 (Lebedev-194)
Angular grid pruning method      GridPruning ... 4 (adaptive)
Weight generation scheme         WeightScheme... Becke
Basis function cutoff            BFCut       ... 1.0000e-11
Integration weight cutoff        WCut        ... 1.0000e-14
Angular grids for H and He will be reduced by one unit
Partially contracted basis set               ... on
Rotationally invariant grid construction     ... off

Total number of grid points                  ...    31148
Total number of batches                      ...      491
Average number of points per batch           ...       63
Average number of grid points per atom       ...     3115
UseSFitting                                  ... on

Time for X-Grid setup             =    0.340 sec


--------------------
CPCM SOLVATION MODEL
--------------------
CPCM parameters:
  Epsilon                                         ...       9.0800
  Refrac                                          ...       1.4240
  Rsolv                                           ...       1.3000
  Surface type                                    ... GAUSSIAN VDW
  Epsilon function type                           ...         CPCM
Radii:
 Radius for C  used is    3.8550 Bohr (=   2.0400 Ang.)
 Radius for H  used is    2.4944 Bohr (=   1.3200 Ang.)
 Radius for N  used is    3.5149 Bohr (=   1.8600 Ang.)
 Radius for O  used is    3.4469 Bohr (=   1.8240 Ang.)
Calculating surface                               ...        done! (  0.0s)
GEPOL surface points                              ...          636
GEPOL Volume                                      ...     713.6595
GEPOL Surface-area                                ...     443.8035
Calculating surface distance matrix               ...        done! (  0.0s)
Performing Cholesky decomposition & store         ...        done! (  0.0s)
Overall time for CPCM initialization              ...                 0.0s
--------------
SCF ITERATIONS
--------------
ITER       Energy         Delta-E        Max-DP      RMS-DP      [F,P]     Damp
               ***  Starting incremental Fock matrix formation  ***
  0   -300.8388957822   0.000000000000 0.10802494  0.00405719  0.2837823 0.7000
  1   -300.9197001331  -0.080804350881 0.06974357  0.00276525  0.1118009 0.7000
                               ***Turning on DIIS***
  2   -300.9489878664  -0.029287733276 0.08904111  0.00400056  0.0390964 0.0000
  3   -300.9966835368  -0.047695670453 0.06066440  0.00211063  0.0634087 0.0000
  4   -301.0072888727  -0.010605335889 0.01258308  0.00055924  0.0164802 0.0000
  5   -301.0082192577  -0.000930385042 0.00590149  0.00020457  0.0043101 0.0000
                      *** Initiating the SOSCF procedure ***
                           *** Shutting down DIIS ***
                      *** Re-Reading the Fockian *** 
                      *** Removing any level shift *** 
ITER      Energy       Delta-E        Grad      Rot      Max-DP    RMS-DP
  6   -301.00828952  -0.0000702609  0.001047  0.001047  0.001513  0.000079
               *** Restarting incremental Fock matrix formation ***
  7   -301.00828007   0.0000094472  0.000573  0.003077  0.001930  0.000084
  8   -301.00828247  -0.0000023975  0.000603  0.002273  0.001486  0.000059
  9   -301.00828567  -0.0000032018  0.000265  0.001495  0.000883  0.000039
 10   -301.00828680  -0.0000011280  0.000116  0.000205  0.000422  0.000012
 11   -301.00828700  -0.0000002008  0.000060  0.000287  0.000177  0.000008
 12   -301.00828709  -0.0000000862  0.000017  0.000035  0.000069  0.000003
 13   -301.00828708   0.0000000009  0.000019  0.000044  0.000040  0.000002
 14   -301.00828709  -0.0000000096  0.000004  0.000017  0.000019  0.000001
 15   -301.00828709   0.0000000009  0.000007  0.000010  0.000011  0.000000
                 **** Energy Check signals convergence ****
              ***Rediagonalizing the Fockian in SOSCF/NRSCF***

               *****************************************************
               *                     SUCCESS                       *
               *           SCF CONVERGED AFTER  16 CYCLES          *
               *****************************************************

Old exchange energy                            =     -7.667914555 Eh
New exchange energy                            =     -7.667911243 Eh
Exchange energy change after final integration =      0.000003312 Eh
Total energy after final integration           =   -301.008283783 Eh
Final COS-X integration done in                =     2.256 sec

----------------
TOTAL SCF ENERGY
----------------

Total Energy       :         -301.00828378 Eh           -8190.85182 eV

Components:
Nuclear Repulsion  :          212.44861887 Eh            5781.02082 eV
Electronic Energy  :         -513.45690265 Eh          -13971.87264 eV
One Electron Energy:         -828.10176696 Eh          -22533.79468 eV
Two Electron Energy:          314.64486431 Eh            8561.92204 eV
Max COSX asymmetry :            0.00000172 Eh               0.00005 eV
CPCM Dielectric    :           -0.01103366 Eh              -0.30024 eV

Virial components:
Potential Energy   :         -599.87344288 Eh          -16323.38625 eV
Kinetic Energy     :          298.86515910 Eh            8132.53443 eV
Virial Ratio       :            2.00717087


DFT components:
N(Alpha)           :       22.000016386663 electrons
N(Beta)            :       22.000016386663 electrons
N(Total)           :       44.000032773326 electrons
E(X)               :      -30.539007559092 Eh       
E(C)               :       -1.781371531067 Eh       
E(XC)              :      -32.320379090160 Eh       
DFET-embed. en.    :        0.000000000000 Eh       
CPCM Solvation Model Properties:
Surface-charge          :           -0.01096352
Charge-correction       :           -0.00003615 Eh              -0.00098 eV
Free-energy (cav+disp)  :  This term is not implemented in the current solvation scheme

---------------
SCF CONVERGENCE
---------------

  Last Energy change         ...   -1.3471e-09  Tolerance :   1.0000e-08
  Last MAX-Density change    ...    1.7764e-15  Tolerance :   1.0000e-07
  Last RMS-Density change    ...    5.2498e-17  Tolerance :   5.0000e-09
  Last Orbital Gradient      ...    2.5569e-07  Tolerance :   1.0000e-05
  Last Orbital Rotation      ...    1.6267e-06  Tolerance :   1.0000e-05

             **** THE GBW FILE WAS UPDATED (ketone_c02.gbw) ****
             **** DENSITY ketone_c02.scfp WAS UPDATED ****
             **** ENERGY FILE WAS UPDATED (ketone_c02.en.tmp) ****
             **** THE GBW FILE WAS UPDATED (ketone_c02.gbw) ****
             **** DENSITY ketone_c02.scfp WAS UPDATED ****
----------------
ORBITAL ENERGIES
----------------

  NO   OCC          E(Eh)            E(eV) 
   0   2.0000     -19.104346      -519.8557 
   1   2.0000     -14.488962      -394.2647 
   2   2.0000     -14.421143      -392.4193 
   3   2.0000     -10.266635      -279.3693 
   4   2.0000     -10.223737      -278.2020 
   5   2.0000     -10.181241      -277.0456 
   6   2.0000      -1.134731       -30.8776 
   7   2.0000      -1.022467       -27.8227 
   8   2.0000      -0.893960       -24.3259 
   9   2.0000      -0.735073       -20.0024 
  10   2.0000      -0.636735       -17.3264 
  11   2.0000      -0.557379       -15.1671 
  12   2.0000      -0.519334       -14.1318 
  13   2.0000      -0.487844       -13.2749 
  14   2.0000      -0.467036       -12.7087 
  15   2.0000      -0.438853       -11.9418 
  16   2.0000      -0.429148       -11.6777 
  17   2.0000      -0.410725       -11.1764 
  18   2.0000      -0.391246       -10.6464 
  19   2.0000      -0.361089        -9.8257 
  20   2.0000      -0.250024        -6.8035 
  21   2.0000      -0.246892        -6.7183 
  22   0.0000      -0.064360        -1.7513 
  23   0.0000      -0.038297        -1.0421 
  24   0.0000       0.075636         2.0582 
  25   0.0000       0.085268         2.3203 
  26   0.0000       0.119005         3.2383 
  27   0.0000       0.138739         3.7753 
  28   0.0000       0.156123         4.2483 
  29   0.0000       0.211166         5.7461 
  30   0.0000       0.241278         6.5655 
  31   0.0000       0.263507         7.1704 
  32   0.0000       0.320457         8.7201 
  33   0.0000       0.361715         9.8428 
  34   0.0000       0.437721        11.9110 
  35   0.0000       0.448594        12.2069 
  36   0.0000       0.493955        13.4412 
  37   0.0000       0.502748        13.6805 
  38   0.0000       0.531912        14.4741 
  39   0.0000       0.567254        15.4358 
  40   0.0000       0.592964        16.1354 
  41   0.0000       0.607906        16.5420 
  42   0.0000       0.612780        16.6746 
  43   0.0000       0.653187        17.7741 
  44   0.0000       0.664108        18.0713 
  45   0.0000       0.671224        18.2649 
  46   0.0000       0.681421        18.5424 
  47   0.0000       0.692260        18.8373 
  48   0.0000       0.712579        19.3903 
  49   0.0000       0.733444        19.9580 
  50   0.0000       0.795378        21.6433 
  51   0.0000       0.830154        22.5896 
  52   0.0000       0.853592        23.2274 
  53   0.0000       0.870622        23.6908 
  54   0.0000       0.952122        25.9086 
  55   0.0000       1.005239        27.3539 
  56   0.0000       1.033614        28.1261 
  57   0.0000       1.061057        28.8728 
  58   0.0000       1.141467        31.0609 
  59   0.0000       1.166224        31.7346 
  60   0.0000       1.186116        32.2758 
  61   0.0000       1.337193        36.3869 
  62   0.0000       1.361428        37.0463 
  63   0.0000       1.401135        38.1268 
  64   0.0000       1.432293        38.9747 
  65   0.0000       1.525537        41.5120 
  66   0.0000       1.580175        42.9987 
  67   0.0000       1.605275        43.6818 
  68   0.0000       1.674878        45.5757 
  69   0.0000       1.735836        47.2345 
  70   0.0000       1.746159        47.5154 
  71   0.0000       1.765180        48.0330 
  72   0.0000       1.783971        48.5443 
  73   0.0000       1.800788        49.0019 
  74   0.0000       1.813252        49.3411 
  75   0.0000       1.850050        50.3424 
  76   0.0000       1.929885        52.5148 
  77   0.0000       1.944820        52.9212 
  78   0.0000       1.995171        54.2914 
  79   0.0000       2.089089        56.8470 
  80   0.0000       2.147379        58.4332 
  81   0.0000       2.178688        59.2851 
  82   0.0000       2.264688        61.6253 
  83   0.0000       2.292363        62.3784 
  84   0.0000       2.314201        62.9726 
  85   0.0000       2.325079        63.2686 
  86   0.0000       2.395613        65.1880 
  87   0.0000       2.437927        66.3394 
  88   0.0000       2.499753        68.0217 
  89   0.0000       2.578454        70.1633 
  90   0.0000       2.628295        71.5195 
  91   0.0000       2.723976        74.1232 
  92   0.0000       2.738089        74.5072 
  93   0.0000       2.815232        76.6064 
  94   0.0000       2.836980        77.1982 
  95   0.0000       2.891467        78.6808 
  96   0.0000       2.930615        79.7461 
  97   0.0000       3.008149        81.8559 
  98   0.0000       3.160698        86.0070 
  99   0.0000       3.251948        88.4900 
 100   0.0000       3.435757        93.4917 
 101   0.0000       3.470434        94.4353 
 102   0.0000       3.668948        99.8372 
 103   0.0000       3.861409       105.0743 

                    ********************************
                    * MULLIKEN POPULATION ANALYSIS *
                    ********************************

-----------------------
MULLIKEN ATOMIC CHARGES
-----------------------
   0 C :   -0.084006
   1 H :    0.061118
   2 C :   -0.016390
   3 N :    0.249150
   4 N :   -0.087399
   5 C :    0.063403
   6 O :   -0.296143
   7 H :    0.057759
   8 H :    0.032570
   9 H :    0.019938
Sum of atomic charges:   -0.0000000

--------------------------------
MULLIKEN REDUCED ORBITAL CHARGES
--------------------------------
  0 C s       :     3.127418  s :     3.127418
      pz      :     1.227618  p :     2.908938
      px      :     0.901006
      py      :     0.780314
      dz2     :     0.004114  d :     0.047650
      dxz     :     0.002373
      dyz     :     0.010057
      dx2y2   :     0.017925
      dxy     :     0.013181
  1 H s       :     0.914569  s :     0.914569
      pz      :     0.006035  p :     0.024313
      px      :     0.014325
      py      :     0.003952
  2 C s       :     3.121772  s :     3.121772
      pz      :     0.814183  p :     2.793218
      px      :     1.028566
      py      :     0.950469
      dz2     :     0.005207  d :     0.101399
      dxz     :     0.007410
      dyz     :     0.022049
      dx2y2   :     0.023912
      dxy     :     0.042821
  3 N s       :     3.353149  s :     3.353149
      pz      :     1.241391  p :     3.340299
      px      :     1.216928
      py      :     0.881981
      dz2     :     0.003072  d :     0.057402
      dxz     :     0.000475
      dyz     :     0.030249
      dx2y2   :     0.008706
      dxy     :     0.014901
  4 N s       :     3.864051  s :     3.864051
      pz      :     1.277181  p :     3.178556
      px      :     0.836340
      py      :     1.065036
      dz2     :     0.004119  d :     0.044791
      dxz     :     0.000210
      dyz     :     0.013120
      dx2y2   :     0.012369
      dxy     :     0.014973
  5 C s       :     2.916787  s :     2.916787
      pz      :     1.022290  p :     2.994162
      px      :     0.981255
      py      :     0.990617
      dz2     :     0.005824  d :     0.025648
      dxz     :     0.003529
      dyz     :     0.004746
      dx2y2   :     0.006211
      dxy     :     0.005339
  6 O s       :     3.726150  s :     3.726150
      pz      :     1.388666  p :     4.552736
      px      :     1.811291
      py      :     1.352778
      dz2     :     0.001943  d :     0.017258
      dxz     :     0.000100
      dyz     :     0.005296
      dx2y2   :     0.006006
      dxy     :     0.003914
  7 H s       :     0.917254  s :     0.917254
      pz      :     0.013738  p :     0.024988
      px      :     0.005645
      py      :     0.005605
  8 H s       :     0.943754  s :     0.943754
      pz      :     0.007159  p :     0.023676
      px      :     0.007876
      py      :     0.008641
  9 H s       :     0.955420  s :     0.955420
      pz      :     0.007444  p :     0.024642
      px      :     0.004617
      py      :     0.012581


                     *******************************
                     * LOEWDIN POPULATION ANALYSIS *
                     *******************************

----------------------
LOEWDIN ATOMIC CHARGES
----------------------
   0 C :   -0.151761
   1 H :    0.063634
   2 C :    0.043439
   3 N :    0.253632
   4 N :   -0.034036
   5 C :   -0.069500
   6 O :   -0.230638
   7 H :    0.052414
   8 H :    0.042004
   9 H :    0.030811

-------------------------------
LOEWDIN REDUCED ORBITAL CHARGES
-------------------------------
  0 C s       :     2.835325  s :     2.835325
      pz      :     1.195545  p :     3.184885
      px      :     1.060240
      py      :     0.929100
      dz2     :     0.012425  d :     0.131552
      dxz     :     0.004324
      dyz     :     0.020414
      dx2y2   :     0.053663
      dxy     :     0.040725
  1 H s       :     0.860322  s :     0.860322
      pz      :     0.021142  p :     0.076043
      px      :     0.041446
      py      :     0.013454
  2 C s       :     2.853561  s :     2.853561
      pz      :     0.797049  p :     2.867767
      px      :     1.048766
      py      :     1.021952
      dz2     :     0.012663  d :     0.235233
      dxz     :     0.013643
      dyz     :     0.042608
      dx2y2   :     0.060709
      dxy     :     0.105611
  3 N s       :     3.050355  s :     3.050355
      pz      :     1.180365  p :     3.572205
      px      :     1.143330
      py      :     1.248510
      dz2     :     0.007179  d :     0.123808
      dxz     :     0.001024
      dyz     :     0.063123
      dx2y2   :     0.022292
      dxy     :     0.030189
  4 N s       :     3.467696  s :     3.467696
      pz      :     1.286295  p :     3.481788
      px      :     0.867454
      py      :     1.328039
      dz2     :     0.010061  d :     0.084553
      dxz     :     0.000337
      dyz     :     0.020974
      dx2y2   :     0.029709
      dxy     :     0.023470
  5 C s       :     2.838280  s :     2.838280
      pz      :     1.070210  p :     3.163109
      px      :     1.029183
      py      :     1.063716
      dz2     :     0.015122  d :     0.068111
      dxz     :     0.009166
      dyz     :     0.012302
      dx2y2   :     0.016547
      dxy     :     0.014974
  6 O s       :     3.539267  s :     3.539267
      pz      :     1.388039  p :     4.661635
      px      :     1.801695
      py      :     1.471901
      dz2     :     0.004087  d :     0.029736
      dxz     :     0.000110
      dyz     :     0.006550
      dx2y2   :     0.012120
      dxy     :     0.006869
  7 H s       :     0.879024  s :     0.879024
      pz      :     0.038327  p :     0.068561
      px      :     0.016665
      py      :     0.013570
  8 H s       :     0.891011  s :     0.891011
      pz      :     0.018725  p :     0.066986
      px      :     0.024486
      py      :     0.023775
  9 H s       :     0.900380  s :     0.900380
      pz      :     0.019358  p :     0.068809
      px      :     0.013716
      py      :     0.035735


                      *****************************
                      * MAYER POPULATION ANALYSIS *
                      *****************************

  NA   - Mulliken gross atomic population
  ZA   - Total nuclear charge
  QA   - Mulliken gross atomic charge
  VA   - Mayer's total valence
  BVA  - Mayer's bonded valence
  FA   - Mayer's free valence

  ATOM       NA         ZA         QA         VA         BVA        FA
  0 C      6.0840     6.0000    -0.0840     3.6336     3.6336     0.0000
  1 H      0.9389     1.0000     0.0611     1.0168     1.0168    -0.0000
  2 C      6.0164     6.0000    -0.0164     4.3836     4.3836     0.0000
  3 N      6.7508     7.0000     0.2492     3.5703     3.5703    -0.0000
  4 N      7.0874     7.0000    -0.0874     2.5630     2.5630     0.0000
  5 C      5.9366     6.0000     0.0634     3.8649     3.8649     0.0000
  6 O      8.2961     8.0000    -0.2961     2.2018     2.2018     0.0000
  7 H      0.9422     1.0000     0.0578     0.9970     0.9970     0.0000
  8 H      0.9674     1.0000     0.0326     1.0179     1.0179    -0.0000
  9 H      0.9801     1.0000     0.0199     1.0018     1.0018    -0.0000

  Mayer bond orders larger than 0.100000
B(  0-C ,  1-H ) :   0.9366 B(  0-C ,  2-C ) :   1.1120 B(  0-C ,  3-N ) :   1.3621 
B(  0-C ,  4-N ) :   0.2491 B(  2-C ,  5-C ) :   1.0673 B(  2-C ,  6-O ) :   2.0021 
B(  3-N ,  4-N ) :   2.1229 B(  5-C ,  7-H ) :   0.9424 B(  5-C ,  8-H ) :   0.9447 
B(  5-C ,  9-H ) :   0.9456 

-------
TIMINGS
-------

Total SCF time: 0 days 0 hours 0 min 23 sec 

Total time                  ....      23.916 sec
Sum of individual times     ....      23.780 sec  ( 99.4%)

Fock matrix formation       ....      22.907 sec  ( 95.8%)
  Split-RI-J                ....       1.261 sec  (  5.5% of F)
  Chain of spheres X        ....      14.932 sec  ( 65.2% of F)
  XC integration            ....       4.402 sec  ( 19.2% of F)
    Basis function eval.    ....       1.713 sec  ( 38.9% of XC)
    Density eval.           ....       1.012 sec  ( 23.0% of XC)
    XC-Functional eval.     ....       0.352 sec  (  8.0% of XC)
    XC-Potential eval.      ....       0.913 sec  ( 20.8% of XC)
Diagonalization             ....       0.012 sec  (  0.1%)
Density matrix formation    ....       0.002 sec  (  0.0%)
Population analysis         ....       0.015 sec  (  0.1%)
Initial guess               ....       0.112 sec  (  0.5%)
Orbital Transformation      ....       0.000 sec  (  0.0%)
Orbital Orthonormalization  ....       0.000 sec  (  0.0%)
DIIS solution               ....       0.006 sec  (  0.0%)
SOSCF solution              ....       0.014 sec  (  0.1%)
Grid generation             ....       0.712 sec  (  3.0%)

Maximum memory used throughout the entire SCF-calculation: 55.7 MB


-------------------------------------------------------------------------------
                          DFT DISPERSION CORRECTION                            
                                                                               
                              DFTD3 V3.1  Rev 1                                
                          USING Becke-Johnson damping                          
-------------------------------------------------------------------------------
The B3LYP functional is recognized
Active option DFTDOPT                   ...         4   

molecular C6(AA) [au] = 1154.592850 


            DFT-D V3
 parameters
 s6 scaling factor         :     1.0000 
 a1 scaling factor         :     0.3981 
 s8 scaling factor         :     1.9889 
 a2 scaling factor         :     4.4211 
 ad hoc parameters k1-k3   :    16.0000     1.3333    -4.0000 

 Edisp/kcal,au: -8.379010934462  -0.013352802447 
 E6   /kcal   :  -3.974792339 
 E8   /kcal   :  -4.404218596 
 % E8         :  52.562511617 

-------------------------   ----------------
Dispersion correction           -0.013352802
-------------------------   ----------------


-------------------------   --------------------
FINAL SINGLE POINT ENERGY      -301.021636585135
-------------------------   --------------------

------------------------------------------------------------------------------
                         ORCA SCF GRADIENT CALCULATION
------------------------------------------------------------------------------

 ... reading COSX grid (gridx3)
Gradient of the Kohn-Sham DFT energy:
Kohn-Sham wavefunction type      ... RKS
Hartree-Fock exchange scaling    ...    0.200
Number of operators              ...    1
Number of atoms                  ...   10
Basis set dimensions             ...  104
Integral neglect threshold       ... 2.5e-11
Integral primitive cutoff        ... 2.5e-12
SHARK Integral package           ... ON

Nuc. rep. gradient       (SHARK) ... done (  0.0 sec)
HCore & Overlap gradient (SHARK) ... done (  0.0 sec)
RI-J gradient            (SHARK) ... done (  0.3 sec)
COSX-gradient                    ... done (  2.8 sec)
Exchange-correlation gradient    ... done
Dispersion correction            ... done

------------------
CARTESIAN GRADIENT
------------------

   1   C   :    0.034925252   -0.037008021    0.000792703
   2   H   :    0.009420264    0.000061386    0.000192868
   3   C   :   -0.042286206   -0.027794038   -0.000447944
   4   N   :    0.004932284    0.052913913   -0.000009986
   5   N   :   -0.004211575    0.027942141   -0.000128000
   6   C   :    0.005541527    0.005567425   -0.006163450
   7   O   :    0.004512895   -0.026438860    0.000580785
   8   H   :   -0.003486293    0.002020473    0.007337091
   9   H   :   -0.002856911   -0.004350636   -0.001105050
  10   H   :   -0.006513093    0.007035014   -0.001100218

Difference to translation invariance:
           :   -0.0000218592   -0.0000512036   -0.0000512027

Difference to rotation invariance:
           :    0.0000667228   -0.0001750731   -0.0003180810

Norm of the cartesian gradient     ...    0.0993642252
RMS gradient                       ...    0.0181413425
MAX gradient                       ...    0.0529139131

-------
TIMINGS
-------

Total SCF gradient time            ...        5.308 sec

One electron gradient       ....       0.040 sec  (  0.7%)
RI-J Coulomb gradient       ....       0.278 sec  (  5.2%)
COSX gradient               ....       2.772 sec  ( 52.2%)
XC gradient                 ....       1.712 sec  ( 32.3%)
CPCM gradient               ....       0.126 sec  (  2.4%)
   A-Matrix (El+Nuc)        ....       0.026 sec  (  0.5%)
   Potential                ....       0.100 sec  (  1.9%)

Maximum memory used throughout the entire SCFGRAD-calculation: 44.1 MB
------------------------------------------------------------------------------
                         ORCA GEOMETRY RELAXATION STEP
------------------------------------------------------------------------------

Reading the OPT-File                    .... done
Getting information on internals        .... done
Copying old internal coords+grads       .... done
Making the new internal coordinates     .... (new redundants).... done
Validating the new internal coordinates .... (new redundants).... done
Calculating the B-matrix                .... done
Calculating the G,G- and P matrices     .... done
Transforming gradient to internals      .... done
Projecting the internal gradient        .... done
Number of atoms                         ....  10
Number of internal coordinates          ....  33
Current Energy                          ....  -301.021636585 Eh
Current gradient norm                   ....     0.099364225 Eh/bohr
Maximum allowed component of the step   ....  0.300
Current trust radius                    ....  0.300
Evaluating the initial hessian          ....  (Almloef) done
Projecting the Hessian                  .... done
Forming the augmented Hessian           .... done
Diagonalizing the augmented Hessian     .... done
Last element of RFO vector              ....  0.987307607
Lowest eigenvalues of augmented Hessian:
 -0.016297275  0.012266918  0.018153901  0.026908398  0.026921560
Length of the computed step             ....  0.160861393
The final length of the internal step   ....  0.160861393
Converting the step to cartesian space:
 Initial RMS(Int)=    0.0280023742
Transforming coordinates:
 Iter   0:  RMS(Cart)=    0.0600032112 RMS(Int)=    1.0903314614
 Iter   1:  RMS(Cart)=    0.0005745649 RMS(Int)=    0.0004453564
 Iter   2:  RMS(Cart)=    0.0000191508 RMS(Int)=    0.0000204156
 Iter   3:  RMS(Cart)=    0.0000061246 RMS(Int)=    0.0000073754
 Iter   4:  RMS(Cart)=    0.0000030030 RMS(Int)=    0.0000036505
 Iter   5:  RMS(Cart)=    0.0000014881 RMS(Int)=    0.0000018101
 Iter   6:  RMS(Cart)=    0.0000007379 RMS(Int)=    0.0000008976
 Iter   7:  RMS(Cart)=    0.0000003659 RMS(Int)=    0.0000004451
 Iter   8:  RMS(Cart)=    0.0000001814 RMS(Int)=    0.0000002207
 Iter   9:  RMS(Cart)=    0.0000000900 RMS(Int)=    0.0000001094
done
Storing new coordinates                 .... done

                                .--------------------.
          ----------------------|Geometry convergence|-------------------------
          Item                value                   Tolerance       Converged
          ---------------------------------------------------------------------
          RMS gradient        0.0195905967            0.0001000000      NO
          MAX gradient        0.0801137499            0.0003000000      NO
          RMS step            0.0280023742            0.0020000000      NO
          MAX step            0.0976592188            0.0040000000      NO
          ........................................................
          Max(Bonds)      0.0517      Max(Angles)    1.99
          Max(Dihed)        1.96      Max(Improp)    0.00
          ---------------------------------------------------------------------

The optimization has not yet converged - more geometry cycles are needed


    ---------------------------------------------------------------------------
                         Redundant Internal Coordinates
                            (Angstroem and degrees)

        Definition                    Value    dE/dq     Step     New-Value
    ----------------------------------------------------------------------------
     1. B(H   1,C   0)                1.0800 -0.008667  0.0118    1.0918   
     2. B(C   2,C   0)                1.3906 -0.062470  0.0517    1.4423   
     3. B(N   3,C   0)                1.2500 -0.080114  0.0445    1.2945   
     4. B(N   4,N   3)                1.1239 -0.028252  0.0111    1.1350   
     5. B(C   5,C   2)                1.5071 -0.010721  0.0134    1.5205   
     6. B(O   6,C   2)                1.2162 -0.026793  0.0132    1.2294   
     7. B(H   7,C   5)                1.0900 -0.008244  0.0116    1.1016   
     8. B(H   8,C   5)                1.0900 -0.005014  0.0070    1.0970   
     9. B(H   9,C   5)                1.0899 -0.006687  0.0094    1.0993   
    10. A(H   1,C   0,C   2)          120.00  0.003174   -0.34    119.65   
    11. A(H   1,C   0,N   3)          120.00  0.010712   -1.42    118.59   
    12. A(C   2,C   0,N   3)          120.00 -0.013888    1.76    121.76   
    13. A(C   0,C   2,O   6)          120.00 -0.000142    0.03    120.03   
    14. A(C   0,C   2,C   5)          120.00  0.002861   -0.38    119.62   
    15. A(C   5,C   2,O   6)          120.00 -0.002720    0.35    120.35   
    16. L(C   0,N   3,N   4,C   2, 2) 179.99 -0.000035    0.00    180.00   
    17. L(C   0,N   3,N   4,C   2, 1) 180.00  0.001331   -0.14    179.86   
    18. A(H   8,C   5,H   9)          109.48  0.002169   -0.12    109.36   
    19. A(H   7,C   5,H   9)          109.47  0.004596   -0.70    108.77   
    20. A(C   2,C   5,H   9)          109.47 -0.010795    1.99    111.46   
    21. A(H   7,C   5,H   8)          109.48  0.000930   -0.53    108.95   
    22. A(C   2,C   5,H   8)          109.47  0.003116   -0.55    108.92   
    23. A(C   2,C   5,H   7)          109.47 -0.000018   -0.09    109.38   
    24. D(O   6,C   2,C   0,N   3)   -179.56  0.000860   -1.27   -180.84   
    25. D(O   6,C   2,C   0,H   1)      0.17  0.000185   -0.38     -0.21   
    26. D(C   5,C   2,C   0,H   1)   -179.82 -0.000614    0.95   -178.88   
    27. D(C   5,C   2,C   0,N   3)      0.44  0.000061    0.06      0.50   
    28. D(H   7,C   5,C   2,O   6)    -90.00 -0.001392    0.41    -89.59   
    29. D(H   8,C   5,C   2,C   0)   -150.00  0.002443   -1.96   -151.96   
    30. D(H   7,C   5,C   2,C   0)     89.99 -0.000593   -0.92     89.07   
    31. D(H   9,C   5,C   2,C   0)    -30.00  0.000398   -1.22    -31.22   
    32. D(H   9,C   5,C   2,O   6)    150.00 -0.000402    0.11    150.11   
    33. D(H   8,C   5,C   2,O   6)     30.00  0.001644   -0.63     29.37   
    ----------------------------------------------------------------------------

         *************************************************************
         *                GEOMETRY OPTIMIZATION CYCLE   2            *
         *************************************************************
---------------------------------
CARTESIAN COORDINATES (ANGSTROEM)
---------------------------------
  C     -0.263243   -0.781429    0.008199
  H     -1.269310   -0.357603   -0.005049
  C      0.880926    0.096678    0.013195
  N     -0.133718   -2.069459    0.007018
  N     -0.017394   -3.198490    0.006026
  C      2.281784   -0.494424    0.005781
  O      0.720951    1.315519   -0.001312
  H      2.610051   -0.643544   -1.035156
  H      2.966448    0.207225    0.498094
  H      2.313027   -1.461128    0.528311

----------------------------
CARTESIAN COORDINATES (A.U.)
----------------------------
  NO LB      ZA    FRAG     MASS         X           Y           Z
   0 C     6.0000    0    12.011   -0.497458   -1.476686    0.015493
   1 H     1.0000    0     1.008   -2.398649   -0.675772   -0.009541
   2 C     6.0000    0    12.011    1.664708    0.182695    0.024936
   3 N     7.0000    0    14.007   -0.252690   -3.910712    0.013261
   4 N     7.0000    0    14.007   -0.032870   -6.044270    0.011388
   5 C     6.0000    0    12.011    4.311947   -0.934325    0.010925
   6 O     8.0000    0    15.999    1.362401    2.485970   -0.002479
   7 H     1.0000    0     1.008    4.932281   -1.216122   -1.956161
   8 H     1.0000    0     1.008    5.605774    0.391599    0.941261
   9 H     1.0000    0     1.008    4.370989   -2.761132    0.998364

--------------------------------
INTERNAL COORDINATES (ANGSTROEM)
--------------------------------
 C      0   0   0     0.000000000000     0.00000000     0.00000000
 H      1   0   0     1.091776104827     0.00000000     0.00000000
 C      1   2   0     1.442296460686   119.65106017     0.00000000
 N      1   2   3     1.294527398946   118.58359962   180.60569524
 N      4   1   2     1.135007655470   179.85998007   180.08819710
 C      3   1   2     1.520480485093   119.61577481   181.12119216
 O      3   1   2     1.229379673292   120.02228167   359.79133602
 H      6   3   1     1.101610298584   109.37662846    89.07407397
 H      6   3   1     1.097017537558   108.91557379   208.04182950
 H      6   3   1     1.099332183497   111.45219407   328.77450463

---------------------------
INTERNAL COORDINATES (A.U.)
---------------------------
 C      0   0   0     0.000000000000     0.00000000     0.00000000
 H      1   0   0     2.063157837683     0.00000000     0.00000000
 C      1   2   0     2.725545314620   119.65106017     0.00000000
 N      1   2   3     2.446302256866   118.58359962   180.60569524
 N      4   1   2     2.144853628742   179.85998007   180.08819710
 C      3   1   2     2.873291708798   119.61577481   181.12119216
 O      3   1   2     2.323190897131   120.02228167   359.79133602
 H      6   3   1     2.081741770631   109.37662846    89.07407397
 H      6   3   1     2.073062710092   108.91557379   208.04182950
 H      6   3   1     2.077436757014   111.45219407   328.77450463

------------------------------------------------------------------------------
                   ___                                                        
                  /   \      - P O W E R E D   B Y -                         
                 /     \                                                     
                 |  |  |   _    _      __       _____    __    __             
                 |  |  |  | |  | |    /  \     |  _  \  |  |  /  |          
                  \  \/   | |  | |   /    \    | | | |  |  | /  /          
                 / \  \   | |__| |  /  /\  \   | |_| |  |  |/  /          
                |  |  |   |  __  | /  /__\  \  |    /   |      \           
                |  |  |   | |  | | |   __   |  |    \   |  |\   \          
                \     /   | |  | | |  |  |  |  | |\  \  |  | \   \       
                 \___/    |_|  |_| |__|  |__|  |_| \__\ |__|  \__/        
                                                                              
                      - O R C A' S   B I G   F R I E N D -                    
                                      &                                       
                       - I N T E G R A L  F E E D E R -                       
                                                                              
 v1 FN, 2020, v2 2021                                                         
------------------------------------------------------------------------------


Reading SHARK input file ketone_c02.SHARKINP.tmp ... ok
----------------------
SHARK INTEGRAL PACKAGE
----------------------

Number of atoms                             ...     10
Number of basis functions                   ...    104
Number of shells                            ...     48
Maximum angular momentum                    ...      2
Integral batch strategy                     ... SHARK/LIBINT Hybrid
RI-J (if used) integral strategy            ... SPLIT-RIJ (Revised 2003 algorithm where possible)
Printlevel                                  ...      1
Contraction scheme used                     ... SEGMENTED contraction
Coulomb Range Separation                    ... NOT USED
Exchange Range Separation                   ... NOT USED
Finite Nucleus Model                        ... NOT USED
Auxiliary Coulomb fitting basis             ... AVAILABLE
   # of basis functions in Aux-J            ...    338
   # of shells in Aux-J                     ...    110
   Maximum angular momentum in Aux-J        ...      4
Auxiliary J/K fitting basis                 ... NOT available
Auxiliary Correlation fitting basis         ... NOT available
Auxiliary 'external' fitting basis          ... NOT available
Integral threshold                          ...     2.500000e-11
Primitive cut-off                           ...     2.500000e-12
Primitive pair pre-selection threshold      ...     2.500000e-12

Calculating pre-screening integrals         ... done (  0.0 sec) Dimension = 48
Organizing shell pair data                  ... done (  0.0 sec)
Shell pair information
Total number of shell pairs                 ...      1176
Shell pairs after pre-screening             ...      1139
Total number of primitive shell pairs       ...      4368
Primitive shell pairs kept                  ...      3269
          la=0 lb=0:    337 shell pairs
          la=1 lb=0:    406 shell pairs
          la=1 lb=1:    135 shell pairs
          la=2 lb=0:    148 shell pairs
          la=2 lb=1:     93 shell pairs
          la=2 lb=2:     20 shell pairs

Calculating one electron integrals          ... done (  0.0 sec)
Calculating RI/J V-Matrix + Cholesky decomp.... done (  0.0 sec)
Calculating Nuclear repulsion               ... done (  0.0 sec) ENN=    207.680620219858 Eh

SHARK setup successfully completed in   0.1 seconds

Maximum memory used throughout the entire GTOINT-calculation: 12.0 MB

Diagonalization of the overlap matrix:
Smallest eigenvalue                        ... 2.083e-03
Time for diagonalization                   ...    0.002 sec
Threshold for overlap eigenvalues          ... 1.000e-08
Number of eigenvalues below threshold      ... 0
Time for construction of square roots      ...    0.001 sec
Total time needed                          ...    0.003 sec

-------------------
DFT GRID GENERATION
-------------------

General Integration Accuracy     IntAcc      ... 4.388
Radial Grid Type                 RadialGrid  ... OptM3 with GC (2021)
Angular Grid (max. ang.)         AngularGrid ... 4 (Lebedev-302)
Angular grid pruning method      GridPruning ... 4 (adaptive)
Weight generation scheme         WeightScheme... Becke
Basis function cutoff            BFCut       ... 1.0000e-11
Integration weight cutoff        WCut        ... 1.0000e-14
Angular grids for H and He will be reduced by one unit
Partially contracted basis set               ... off
Rotationally invariant grid construction     ... off

Total number of grid points                  ...    49396
Total number of batches                      ...      777
Average number of points per batch           ...       63
Average number of grid points per atom       ...     4940
Time for grid setup =    0.301 sec

--------------------
COSX GRID GENERATION
--------------------

GRIDX 1
-------
General Integration Accuracy     IntAcc      ... 3.816
Radial Grid Type                 RadialGrid  ... OptM3 with GC (2021)
Angular Grid (max. ang.)         AngularGrid ... 1 (Lebedev-50)
Angular grid pruning method      GridPruning ... 4 (adaptive)
Weight generation scheme         WeightScheme... Becke
Basis function cutoff            BFCut       ... 1.0000e-11
Integration weight cutoff        WCut        ... 1.0000e-14
Angular grids for H and He will be reduced by one unit
Partially contracted basis set               ... on
Rotationally invariant grid construction     ... off

Total number of grid points                  ...     6312
Total number of batches                      ...      104
Average number of points per batch           ...       60
Average number of grid points per atom       ...      631
UseSFitting                                  ... on

GRIDX 2
-------
General Integration Accuracy     IntAcc      ... 4.020
Radial Grid Type                 RadialGrid  ... OptM3 with GC (2021)
Angular Grid (max. ang.)         AngularGrid ... 2 (Lebedev-110)
Angular grid pruning method      GridPruning ... 4 (adaptive)
Weight generation scheme         WeightScheme... Becke
Basis function cutoff            BFCut       ... 1.0000e-11
Integration weight cutoff        WCut        ... 1.0000e-14
Angular grids for H and He will be reduced by one unit
Partially contracted basis set               ... on
Rotationally invariant grid construction     ... off

Total number of grid points                  ...    14134
Total number of batches                      ...      227
Average number of points per batch           ...       62
Average number of grid points per atom       ...     1413
UseSFitting                                  ... on

GRIDX 3
-------
General Integration Accuracy     IntAcc      ... 4.338
Radial Grid Type                 RadialGrid  ... OptM3 with GC (2021)
Angular Grid (max. ang.)         AngularGrid ... 3 (Lebedev-194)
Angular grid pruning method      GridPruning ... 4 (adaptive)
Weight generation scheme         WeightScheme... Becke
Basis function cutoff            BFCut       ... 1.0000e-11
Integration weight cutoff        WCut        ... 1.0000e-14
Angular grids for H and He will be reduced by one unit
Partially contracted basis set               ... on
Rotationally invariant grid construction     ... off

Total number of grid points                  ...    31201
Total number of batches                      ...      492
Average number of points per batch           ...       63
Average number of grid points per atom       ...     3120
UseSFitting                                  ... on

Time for X-Grid setup             =    0.353 sec


--------------------
CPCM SOLVATION MODEL
--------------------
CPCM parameters:
  Epsilon                                         ...       9.0800
  Refrac                                          ...       1.4240
  Rsolv                                           ...       1.3000
  Surface type                                    ... GAUSSIAN VDW
  Epsilon function type                           ...         CPCM
Radii:
 Radius for C  used is    3.8550 Bohr (=   2.0400 Ang.)
 Radius for H  used is    2.4944 Bohr (=   1.3200 Ang.)
 Radius for N  used is    3.5149 Bohr (=   1.8600 Ang.)
 Radius for O  used is    3.4469 Bohr (=   1.8240 Ang.)
Calculating surface                               ...        done! (  0.0s)
GEPOL surface points                              ...          651
GEPOL Volume                                      ...     726.0818
GEPOL Surface-area                                ...     452.8742
Calculating surface distance matrix               ...        done! (  0.0s)
Performing Cholesky decomposition & store         ...        done! (  0.0s)
Overall time for CPCM initialization              ...                 0.0s
--------------
SCF ITERATIONS
--------------
ITER       Energy         Delta-E        Max-DP      RMS-DP      [F,P]     Damp
               ***  Starting incremental Fock matrix formation  ***
  0   -301.0148608429   0.000000000000 0.00901472  0.00039710  0.0220633 0.7000
                      *** Initiating the SOSCF procedure ***
                      *** Re-Reading the Fockian *** 
                      *** Removing any level shift *** 
ITER      Energy       Delta-E        Grad      Rot      Max-DP    RMS-DP
  1   -301.01577410  -0.0009132605  0.001803  0.001803  0.022357  0.001071
               *** Restarting incremental Fock matrix formation ***
  2   -301.01770381  -0.0019297080  0.003339  0.010859  0.016597  0.000524
  3   -301.01720722   0.0004965869  0.006472  0.006055  0.010778  0.000344
  4   -301.01788765  -0.0006804222  0.000959  0.003003  0.005641  0.000154
  5   -301.01787814   0.0000095041  0.001067  0.002094  0.002476  0.000091
  6   -301.01790244  -0.0000242954  0.000421  0.000701  0.001562  0.000063
  7   -301.01790114   0.0000012970  0.000444  0.000334  0.000963  0.000036
  8   -301.01790486  -0.0000037191  0.000039  0.000099  0.000176  0.000005
  9   -301.01790483   0.0000000308  0.000055  0.000072  0.000112  0.000003
 10   -301.01790488  -0.0000000549  0.000004  0.000015  0.000026  0.000001
 11   -301.01790488  -0.0000000002  0.000005  0.000008  0.000015  0.000000
                 **** Energy Check signals convergence ****
              ***Rediagonalizing the Fockian in SOSCF/NRSCF***

               *****************************************************
               *                     SUCCESS                       *
               *           SCF CONVERGED AFTER  12 CYCLES          *
               *****************************************************

Old exchange energy                            =     -7.645058907 Eh
New exchange energy                            =     -7.645059633 Eh
Exchange energy change after final integration =     -0.000000726 Eh
Total energy after final integration           =   -301.017905611 Eh
Final COS-X integration done in                =     2.469 sec
Total Energy       :         -301.01790561 Eh           -8191.11364 eV
  Last Energy change         ...   -4.5850e-10  Tolerance :   1.0000e-08
  Last MAX-Density change    ...    1.3323e-15  Tolerance :   1.0000e-07
             **** THE GBW FILE WAS UPDATED (ketone_c02.gbw) ****
             **** DENSITY ketone_c02.scfp WAS UPDATED ****
             **** ENERGY FILE WAS UPDATED (ketone_c02.en.tmp) ****
             **** THE GBW FILE WAS UPDATED (ketone_c02.gbw) ****
             **** DENSITY ketone_c02.scfp WAS UPDATED ****
Total SCF time: 0 days 0 hours 0 min 21 sec 

Maximum memory used throughout the entire SCF-calculation: 55.7 MB


-------------------------------------------------------------------------------
                          DFT DISPERSION CORRECTION                            
                                                                               
                              DFTD3 V3.1  Rev 1                                
                          USING Becke-Johnson damping                          
-------------------------------------------------------------------------------
-------------------------   ----------------
Dispersion correction           -0.013020025
-------------------------   ----------------


-------------------------   --------------------
FINAL SINGLE POINT ENERGY      -301.030925636481
-------------------------   --------------------

------------------------------------------------------------------------------
                         ORCA SCF GRADIENT CALCULATION
------------------------------------------------------------------------------

 ... reading COSX grid (gridx3)
Gradient of the Kohn-Sham DFT energy:
Kohn-Sham wavefunction type      ... RKS
Hartree-Fock exchange scaling    ...    0.200
Number of operators              ...    1
Number of atoms                  ...   10
Basis set dimensions             ...  104
Integral neglect threshold       ... 2.5e-11
Integral primitive cutoff        ... 2.5e-12
SHARK Integral package           ... ON

Nuc. rep. gradient       (SHARK) ... done (  0.0 sec)
HCore & Overlap gradient (SHARK) ... done (  0.0 sec)
RI-J gradient            (SHARK) ... done (  0.3 sec)
COSX-gradient                    ... done (  2.9 sec)
Exchange-correlation gradient    ... done
Dispersion correction            ... done

------------------
CARTESIAN GRADIENT
------------------

   1   C   :    0.006848116   -0.010048824    0.000030977
   2   H   :    0.001334133    0.003328559    0.000130700
   3   C   :   -0.015012151   -0.015773851    0.001611583
   4   N   :    0.002178919    0.018521793   -0.000024990
   5   N   :   -0.000217089   -0.003563708   -0.000015482
   6   C   :    0.005623284    0.003453333   -0.003605387
   7   O   :    0.002299853    0.003677025   -0.000550831
   8   H   :   -0.000342375    0.000445496    0.000611361
   9   H   :   -0.000284281   -0.001244218    0.000706255
  10   H   :   -0.002470478    0.001160982    0.001079924

Difference to translation invariance:
[...]
     18       0.000000   0.000000   0.000000   0.000000   0.000000   0.000000
     19       0.000000   0.000000   0.000000   0.000000   0.000000   0.000000
     20       0.000000   0.000000   0.000000   0.000000   0.000000   0.000000
     21       0.000000   0.000000   0.000000   0.000000   0.000000   0.000000
     22       0.000000   0.000000   0.000000   0.000000   0.000000   0.000000
     23       0.000000   0.000000   0.000000   0.000000   0.000000   0.000000
     24       0.000000   0.000000   0.000000   0.000000   0.000000   0.000000
     25       0.000000   0.000000   0.000000   0.000000   0.000000   0.000000
     26       0.000000   0.000000   0.000000   0.000000   0.000000   0.000000
     27       0.000000   0.000000   0.000000   0.000000   0.000000   0.000000
     28       0.000000   0.000000   0.000000   0.000000   0.000000   0.000000
     29       0.000000   0.000000   0.000000   0.000000   0.000000   0.000000
                  6          7          8          9         10         11    
      0       0.003815  -0.009633   0.179361  -0.123225   0.001758   0.170392
      1      -0.005094  -0.039092  -0.082746   0.029630  -0.004981   0.101402
      2       0.027829   0.422833   0.001146   0.003290   0.055859   0.009534
      3       0.004076  -0.011871   0.187506  -0.012591   0.010827   0.246926
      4      -0.007630  -0.055662  -0.051200   0.318920   0.083197   0.289357
      5       0.078403   0.569579   0.000688   0.002422  -0.862318   0.064543
      6       0.002785  -0.003535   0.096274   0.049206  -0.002012   0.139158
      7      -0.000353  -0.005263   0.024382  -0.160360  -0.015101  -0.040159
      8      -0.003525   0.056895   0.006620  -0.007816   0.173882  -0.007487
      9      -0.001757   0.000315   0.025394  -0.318805   0.004517   0.051627
     10      -0.002369  -0.004150  -0.099650   0.027634   0.003357   0.152925
     11      -0.007269   0.075740  -0.006297  -0.000577  -0.025446   0.015722
     12      -0.010272   0.015380  -0.389478   0.152003  -0.001770  -0.026831
     13       0.000051   0.034716  -0.158573   0.094023  -0.000135   0.152518
     14      -0.044915  -0.309580  -0.021912   0.010608   0.001907   0.014937
     15       0.007489  -0.009810   0.207031   0.202852  -0.000508   0.144371
     16       0.007695  -0.024359   0.275353   0.127529  -0.002200  -0.204157
     17       0.017039   0.151481   0.031381   0.015073  -0.021580  -0.017134
     18      -0.002310   0.006715  -0.099295   0.001131  -0.002878  -0.397052
     19      -0.001109   0.033873   0.002173  -0.173506   0.007268  -0.117425
     20      -0.000940  -0.332011  -0.010525  -0.021046  -0.054055  -0.014515
     21      -0.131820   0.087128   0.349411   0.440262  -0.253032  -0.056325
     22      -0.483242   0.175598   0.383780   0.202605   0.064148  -0.262219
     23       0.311520   0.035012  -0.017443   0.002422  -0.103643  -0.011338
     24      -0.000470  -0.000034   0.057330  -0.095078  -0.004513   0.403364
     25       0.047328  -0.047886   0.412908   0.411202   0.013611  -0.447461
     26      -0.510215   0.382204   0.134527   0.052931  -0.218863  -0.040655
     27       0.164143  -0.126109   0.289734   0.432188   0.263296  -0.045272
     28       0.466572  -0.215661   0.222671   0.168769  -0.055584  -0.257352
     29       0.367710   0.011023  -0.025194   0.011186  -0.110502  -0.028419
                 12         13         14         15         16         17    
      0       0.006303  -0.134176  -0.000030  -0.265517  -0.118791   0.005594
      1       0.031197   0.060621   0.016336  -0.006549  -0.023710   0.004857
      2      -0.326077   0.002720  -0.165163  -0.001360  -0.006210  -0.038900
      3       0.010668  -0.231894  -0.011807  -0.420415  -0.147841   0.005685
      4       0.059908  -0.204386  -0.078098  -0.382503  -0.088470  -0.001686
      5      -0.568048  -0.034090   0.741637  -0.045884  -0.009143   0.051673
      6       0.002798  -0.135527  -0.004076  -0.080630   0.056549  -0.005444
      7       0.006186  -0.207260  -0.019365   0.101654  -0.017898  -0.018022
      8      -0.016690  -0.023223   0.202751   0.002408   0.011166   0.198163
      9      -0.012887   0.335849   0.001821   0.054128   0.034520  -0.001854
     10      -0.067792   0.171968   0.001141  -0.023501   0.017306  -0.000565
     11       0.662149   0.027533  -0.012222  -0.001618   0.001600  -0.003570
     12       0.006068  -0.130015  -0.000431  -0.017158  -0.010599   0.000418
     13       0.030292   0.135956  -0.001429  -0.039692   0.008164  -0.000794
     14      -0.341915   0.008245   0.012723  -0.004147   0.000936   0.002429
     15       0.000897  -0.032784   0.000178   0.294679   0.044084   0.002196
     16       0.000176   0.019097  -0.004785  -0.140334   0.164655   0.005240
     17      -0.014437   0.001303   0.035911  -0.008137   0.007384  -0.166602
     18      -0.001959   0.051368   0.001471  -0.036028   0.023580  -0.001527
     19       0.001509  -0.202463   0.008458   0.138675  -0.079473   0.009558
     20       0.027949  -0.018982  -0.073049   0.014788  -0.009800  -0.039004
     21      -0.038402   0.324810  -0.338853   0.388442  -0.455694   0.537243
     22      -0.000889   0.118121   0.145724  -0.124364  -0.069585  -0.320518
     23      -0.019773  -0.006688  -0.114787  -0.010127   0.080788   0.131892
     24       0.009079  -0.450843  -0.013575   0.318561   0.583195  -0.013036
     25      -0.006760   0.415031   0.024005  -0.148982  -0.354208  -0.012779
     26      -0.028614   0.039838  -0.220240  -0.006771  -0.020250   0.370924
     27       0.025372   0.286719   0.368362   0.384809  -0.469944  -0.513659
     28      -0.002652   0.125611  -0.128777  -0.128167  -0.046451   0.296587
     29      -0.020749   0.033854  -0.129915  -0.007340  -0.078144   0.167906
                 18         19         20         21         22         23    
      0      -0.105979  -0.127294   0.015267   0.135402   0.012339   0.002089
      1       0.138028   0.094599   0.129655   0.342318   0.028907   0.002404
      2       0.012253   0.007887   0.013148   0.034949   0.003203   0.003693
      3       0.188421  -0.345344  -0.138677  -0.194554  -0.013142   0.000187
      4       0.948219  -0.441071  -0.273300  -0.549624  -0.040353  -0.003348
      5       0.096149  -0.047317  -0.028635  -0.057410  -0.003652   0.002946
      6       0.009296   0.338210   0.041825  -0.178168  -0.027256  -0.004066
      7      -0.008964   0.058816  -0.005256  -0.058587   0.005729   0.000000
      8      -0.000662   0.009602  -0.001020  -0.005808  -0.000513  -0.021974
      9       0.076517   0.008901  -0.011607  -0.040337  -0.003981  -0.000023
     10      -0.054554  -0.015162  -0.024176  -0.066115  -0.006161  -0.000275
     11      -0.004668  -0.001475  -0.002442  -0.007040  -0.000633  -0.000574
     12       0.005518   0.002595   0.008088   0.024579   0.002073   0.000232
     13      -0.127823  -0.058181  -0.044156  -0.098950  -0.006917  -0.000690
     14      -0.012346  -0.005622  -0.004241  -0.009336  -0.000697  -0.000212
     15      -0.003049  -0.062095  -0.130168   0.142229  -0.041181   0.010682
     16       0.000080  -0.061277   0.071568  -0.007087  -0.031781   0.004845
     17      -0.000040  -0.006366   0.002402   0.005408  -0.007397  -0.050982
     18      -0.008464  -0.051434  -0.008164   0.011736   0.007620   0.000059
     19       0.002422  -0.022895  -0.022791  -0.040938  -0.025859   0.001395
     20       0.000120  -0.002887  -0.002248  -0.004062  -0.002626   0.001657
     21       0.000525  -0.145614   0.450908  -0.398901   0.086246  -0.473221
     22       0.002489   0.204599  -0.249178   0.013966   0.483432  -0.265741
     23      -0.000462  -0.170328   0.280923  -0.085176  -0.305862   0.062134
     24      -0.006552  -0.476598   0.263075  -0.097259   0.329434  -0.038061
     25       0.003457   0.326087  -0.300139   0.218395  -0.373442   0.003985
     26       0.000127   0.030948   0.006578  -0.050414   0.052493   0.709834
     27       0.000378  -0.149126   0.473927  -0.461771   0.171478   0.403539
     28       0.002839   0.195052  -0.201203  -0.035649   0.488501   0.169998
     29       0.001071   0.198602  -0.303464   0.073336   0.373275   0.035010
                 24         25         26         27         28         29    
      0       0.023295   0.041037   0.000270  -0.000001  -0.000390   0.081141
      1      -0.029015  -0.119371  -0.000410   0.000027   0.000196  -0.029851
      2      -0.002509  -0.011414  -0.000039   0.000064   0.000008  -0.002058
      3       0.071684  -0.003372  -0.001153   0.000359   0.000606  -0.933182
      4       0.138378  -0.179502   0.001388  -0.000117  -0.000540   0.347978
      5       0.014485  -0.017169   0.000136   0.000119  -0.000050   0.024194
      6      -0.144017  -0.029703  -0.001709  -0.000139  -0.000344  -0.001958
      7       0.737931  -0.080138   0.000264   0.000064   0.001750  -0.001694
      8       0.070986  -0.008343   0.000019  -0.000283   0.000138  -0.000190
      9      -0.014313  -0.102933  -0.000114   0.000014   0.000012  -0.000636
     10       0.043416   0.740270  -0.000068  -0.000059  -0.000353  -0.000552
     11       0.004004   0.070890  -0.000005   0.000031  -0.000040  -0.000059
     12       0.007493   0.085574  -0.000038  -0.000017  -0.000049   0.000248
     13      -0.057037  -0.604939   0.000169   0.000050   0.000092   0.002415
     14      -0.005428  -0.057726   0.000014  -0.000022   0.000012   0.000237
     15       0.030406   0.005100   0.038379   0.001526   0.046188  -0.000392
     16      -0.052975   0.001498  -0.034948   0.006380   0.081755   0.000270
     17      -0.005039   0.000392  -0.000672  -0.092345   0.006696  -0.000021
     18       0.067287   0.000264  -0.000019  -0.000003  -0.000053   0.000054
     19      -0.483172   0.041179   0.000390   0.000022  -0.000785   0.000054
     20      -0.047057   0.004114   0.000040  -0.000276  -0.000061   0.000005
     21       0.121208   0.010061  -0.070952  -0.085988   0.041293  -0.000492
     22      -0.149691   0.016141   0.326851   0.384352  -0.156870  -0.000696
     23       0.073841  -0.009213   0.529922   0.588150  -0.263529  -0.001082
     24      -0.196108   0.023748  -0.291737  -0.016767  -0.620671  -0.000274
     25       0.189008  -0.024741  -0.316858  -0.016742  -0.654961  -0.000240
     26       0.011343  -0.002961  -0.018639  -0.014292  -0.039315   0.000025
     27       0.106165   0.010781  -0.073907   0.085964   0.038523  -0.000353
     28      -0.135474   0.013412   0.399193  -0.444836  -0.168902  -0.001134
     29      -0.088915   0.011863  -0.503926   0.533247   0.222730   0.001356


-----------
IR SPECTRUM
-----------

 Mode   freq       eps      Int      T**2         TX        TY        TZ
       cm**-1   L/(mol*cm) km/mol    a.u.
----------------------------------------------------------------------------
  6:     85.62   0.000503    2.54  0.001835  ( 0.004805 -0.002442  0.042491)
  7:    136.99   0.001193    6.03  0.002717  (-0.002577 -0.005324  0.051784)
  8:    164.71   0.001527    7.72  0.002893  ( 0.053072  0.008674  0.000815)
  9:    387.99   0.001469    7.42  0.001182  ( 0.000741  0.034298  0.002163)
 10:    485.37   0.005086   25.70  0.003270  ( 0.001203  0.005385 -0.056917)
 11:    503.49   0.004632   23.41  0.002871  ( 0.050899  0.016413  0.003256)
 12:    575.38   0.000724    3.66  0.000393  ( 0.000376 -0.001589  0.019747)
 13:    599.54   0.003420   17.28  0.001780  (-0.037883 -0.018414 -0.002387)
 14:    632.63   0.010294   52.02  0.005078  (-0.001602 -0.007814  0.070811)
 15:    820.85   0.000444    2.24  0.000169  (-0.012407  0.003756 -0.000843)
 16:    999.60   0.011002   55.60  0.003435  ( 0.025501  0.052264  0.007266)
 17:   1021.30   0.003204   16.19  0.000979  (-0.000823 -0.005827  0.030728)
 18:   1171.59   0.000495    2.50  0.000132  (-0.000039 -0.011429 -0.001076)
 19:   1245.46   0.038225  193.17  0.009578  ( 0.071367  0.066539  0.007542)
 20:   1359.89   0.016075   81.24  0.003689  ( 0.025836 -0.054828 -0.003910)
 21:   1386.90   0.064747  327.20  0.014569  (-0.063591 -0.101883 -0.012021)
 22:   1420.92   0.000974    4.92  0.000214  ( 0.000752  0.014312  0.002933)
 23:   1435.12   0.002633   13.31  0.000572  (-0.003518 -0.006134  0.022858)
 24:   1737.96   0.153366  775.05  0.027538  ( 0.003587  0.165119  0.016151)
 25:   2247.37   0.174069  879.67  0.024171  ( 0.011322  0.154300  0.015303)
 26:   3034.32   0.000103    0.52  0.000011  ( 0.002777 -0.001682 -0.000087)
 27:   3111.72   0.000577    2.91  0.000058  ( 0.000533  0.000399 -0.007576)
 28:   3161.75   0.001186    5.99  0.000117  ( 0.007187  0.008048  0.000776)
 29:   3221.33   0.004855   24.53  0.000470  (-0.019287  0.009886  0.000772)

* The epsilon (eps) is given for a Dirac delta lineshape.
** The dipole moment derivative (T) already includes vibrational overlap.

The first frequency considered to be a vibration is 6
The total number of vibrations considered is 24


--------------------------
THERMOCHEMISTRY AT 298.15K
--------------------------

Temperature         ... 298.15 K
Pressure            ... 1.00 atm
Total Mass          ... 84.08 AMU

Throughout the following assumptions are being made:
  (1) The electronic state is orbitally nondegenerate
  (2) There are no thermally accessible electronically excited states
  (3) Hindered rotations indicated by low frequency modes are not
      treated as such but are treated as vibrations and this may
      cause some error
  (4) All equations used are the standard statistical mechanics
      equations for an ideal gas
  (5) All vibrations are strictly harmonic

freq.      85.62  E(vib)   ...       0.48 
freq.     136.99  E(vib)   ...       0.42 
freq.     164.71  E(vib)   ...       0.39 
freq.     387.99  E(vib)   ...       0.20 
freq.     485.37  E(vib)   ...       0.15 
freq.     503.49  E(vib)   ...       0.14 
freq.     575.38  E(vib)   ...       0.11 
freq.     599.54  E(vib)   ...       0.10 
freq.     632.63  E(vib)   ...       0.09 
freq.     820.85  E(vib)   ...       0.05 
freq.     999.60  E(vib)   ...       0.02 
freq.    1021.30  E(vib)   ...       0.02 
freq.    1171.59  E(vib)   ...       0.01 
freq.    1245.46  E(vib)   ...       0.01 
freq.    1359.89  E(vib)   ...       0.01 
freq.    1386.90  E(vib)   ...       0.00 
freq.    1420.92  E(vib)   ...       0.00 
freq.    1435.12  E(vib)   ...       0.00 
freq.    1737.96  E(vib)   ...       0.00 
freq.    2247.37  E(vib)   ...       0.00 
freq.    3034.32  E(vib)   ...       0.00 
freq.    3111.72  E(vib)   ...       0.00 
freq.    3161.75  E(vib)   ...       0.00 
freq.    3221.33  E(vib)   ...       0.00 

------------
INNER ENERGY
------------

The inner energy is: U= E(el) + E(ZPE) + E(vib) + E(rot) + E(trans)
    E(el)   - is the total energy from the electronic structure calculation
              = E(kin-el) + E(nuc-el) + E(el-el) + E(nuc-nuc)
    E(ZPE)  - the the zero temperature vibrational energy from the frequency calculation
    E(vib)  - the the finite temperature correction to E(ZPE) due to population
              of excited vibrational states
    E(rot)  - is the rotational thermal energy
    E(trans)- is the translational thermal energy

Summary of contributions to the inner energy U:
Electronic energy                ...   -301.03208247 Eh
Zero point energy                ...      0.07050427 Eh      44.24 kcal/mol
Thermal vibrational correction   ...      0.00351012 Eh       2.20 kcal/mol
Thermal rotational correction    ...      0.00141627 Eh       0.89 kcal/mol
Thermal translational correction ...      0.00141627 Eh       0.89 kcal/mol
-----------------------------------------------------------------------
Total thermal energy                   -300.95523553 Eh


Summary of corrections to the electronic energy:
(perhaps to be used in another calculation)
Total thermal correction                  0.00634266 Eh       3.98 kcal/mol
Non-thermal (ZPE) correction              0.07050427 Eh      44.24 kcal/mol
-----------------------------------------------------------------------
Total correction                          0.07684694 Eh      48.22 kcal/mol


--------
ENTHALPY
--------

The enthalpy is H = U + kB*T
                kB is Boltzmann's constant
Total free energy                 ...   -300.95523553 Eh 
Thermal Enthalpy correction       ...      0.00094421 Eh       0.59 kcal/mol
-----------------------------------------------------------------------
Total Enthalpy                    ...   -300.95429132 Eh


Note: Only C1 symmetry has been detected, increase convergence thresholds 
      if your molecule has a higher symmetry. Symmetry factor of 1.0 is   
      used for the rotational entropy correction. 
 

Note: Rotational entropy computed according to Herzberg 
Infrared and Raman Spectra, Chapter V,1, Van Nostrand Reinhold, 1945 
Point Group:  C1, Symmetry Number:   1  
Rotational constants in cm-1:     0.292459     0.081957     0.064800 

Vibrational entropy computed according to the QRRHO of S. Grimme
Chem.Eur.J. 2012 18 9955


-------
ENTROPY
-------

The entropy contributions are T*S = T*(S(el)+S(vib)+S(rot)+S(trans))
     S(el)   - electronic entropy
     S(vib)  - vibrational entropy
     S(rot)  - rotational entropy
     S(trans)- translational entropy
The entropies will be listed as multiplied by the temperature to get
units of energy

Electronic entropy                ...      0.00000000 Eh      0.00 kcal/mol
Vibrational entropy               ...      0.00606120 Eh      3.80 kcal/mol
Rotational entropy                ...      0.01256403 Eh      7.88 kcal/mol
Translational entropy             ...      0.01862562 Eh     11.69 kcal/mol
-----------------------------------------------------------------------
Final entropy term                ...      0.03725085 Eh     23.38 kcal/mol

In case the symmetry of your molecule has not been determined correctly
or in case you have a reason to use a different symmetry number we print 
out the resulting rotational entropy values for sn=1,12 :
 --------------------------------------------------------
|  sn= 1 | S(rot)=       0.01256403 Eh      7.88 kcal/mol|
|  sn= 2 | S(rot)=       0.01190957 Eh      7.47 kcal/mol|
|  sn= 3 | S(rot)=       0.01152674 Eh      7.23 kcal/mol|
|  sn= 4 | S(rot)=       0.01125512 Eh      7.06 kcal/mol|
|  sn= 5 | S(rot)=       0.01104443 Eh      6.93 kcal/mol|
|  sn= 6 | S(rot)=       0.01087228 Eh      6.82 kcal/mol|
|  sn= 7 | S(rot)=       0.01072674 Eh      6.73 kcal/mol|
|  sn= 8 | S(rot)=       0.01060066 Eh      6.65 kcal/mol|
|  sn= 9 | S(rot)=       0.01048945 Eh      6.58 kcal/mol|
|  sn=10 | S(rot)=       0.01038997 Eh      6.52 kcal/mol|
|  sn=11 | S(rot)=       0.01029998 Eh      6.46 kcal/mol|
|  sn=12 | S(rot)=       0.01021783 Eh      6.41 kcal/mol|
 --------------------------------------------------------


-------------------
GIBBS FREE ENERGY
-------------------

The Gibbs free energy is G = H - T*S

Total enthalpy                    ...   -300.95429132 Eh 
Total entropy correction          ...     -0.03725085 Eh    -23.38 kcal/mol
-----------------------------------------------------------------------
Final Gibbs free energy         ...   -300.99154218 Eh

For completeness - the Gibbs free energy minus the electronic energy
G-E(el)                           ...      0.04054029 Eh     25.44 kcal/mol


Timings for individual modules:

Sum of individual times         ...      447.881 sec (=   7.465 min)
GTO integral calculation        ...        2.677 sec (=   0.045 min)   0.6 %
SCF iterations                  ...      262.863 sec (=   4.381 min)  58.7 %
SCF Gradient evaluation         ...       75.266 sec (=   1.254 min)  16.8 %
Geometry relaxation             ...        1.214 sec (=   0.020 min)   0.3 %
Analytical frequency calculation...      105.861 sec (=   1.764 min)  23.6 %
                             ****ORCA TERMINATED NORMALLY****
TOTAL RUN TIME: 0 days 0 hours 7 minutes 30 seconds 687 msec
