
                                 *****************
                                 * O   R   C   A *
                                 *****************

                                            #,                                       
                                            ###                                      
                                            ####                                     
                                            #####                                    
                                            ######                                   
                                           ########,                                 
                                     ,,################,,,,,                         
                               ,,#################################,,                 
                          ,,##########################################,,             
                       ,#########################################, ''#####,          
                    ,#############################################,,   '####,        
                  ,##################################################,,,,####,       
                ,###########''''           ''''###############################       
              ,#####''   ,,,,##########,,,,          '''####'''          '####       
            ,##' ,,,,###########################,,,                        '##       
           ' ,,###''''                  '''############,,,                           
         ,,##''                                '''############,,,,        ,,,,,,###''
      ,#''                                            '''#######################'''  
     '                                                          ''''####''''         
             ,#######,   #######,   ,#######,      ##                                
            ,#'     '#,  ##    ##  ,#'     '#,    #''#        ######   ,####,        
            ##       ##  ##   ,#'  ##            #'  '#       #        #'  '#        
            ##       ##  #######   ##           ,######,      #####,   #    #        
            '#,     ,#'  ##    ##  '#,     ,#' ,#      #,         ##   #,  ,#        
             '#######'   ##     ##  '#######'  #'      '#     #####' # '####'        



                  #######################################################
                  #                        -***-                        #
                  #          Department of theory and spectroscopy      #
                  #    Directorship and core code : Frank Neese         #
                  #        Max Planck Institute fuer Kohlenforschung    #
                  #                Kaiser Wilhelm Platz 1               #
                  #                 D-45470 Muelheim/Ruhr               #
                  #                      Germany                        #
                  #                                                     #
                  #                  All rights reserved                #
                  #                        -***-                        #
                  #######################################################


                         Program Version 5.0.3 -  RELEASE  -


 With contributions from (in alphabetic order):
   Daniel Aravena         : Magnetic Suceptibility
   Michael Atanasov       : Ab Initio Ligand Field Theory (pilot matlab implementation)
   Alexander A. Auer      : GIAO ZORA, VPT2 properties, NMR spectrum
   Ute Becker             : Parallelization
   Giovanni Bistoni       : ED, misc. LED, open-shell LED, HFLD
   Martin Brehm           : Molecular dynamics
   Dmytro Bykov           : SCF Hessian
   Vijay G. Chilkuri      : MRCI spin determinant printing, contributions to CSF-ICE
   Dipayan Datta          : RHF DLPNO-CCSD density
   Achintya Kumar Dutta   : EOM-CC, STEOM-CC
   Dmitry Ganyushin       : Spin-Orbit,Spin-Spin,Magnetic field MRCI
   Miquel Garcia          : C-PCM and meta-GGA Hessian, CC/C-PCM, Gaussian charge scheme
   Yang Guo               : DLPNO-NEVPT2, F12-NEVPT2, CIM, IAO-localization
   Andreas Hansen         : Spin unrestricted coupled pair/coupled cluster methods
   Benjamin Helmich-Paris : MC-RPA, TRAH-SCF, COSX integrals
   Lee Huntington         : MR-EOM, pCC
   Robert Izsak           : Overlap fitted RIJCOSX, COSX-SCS-MP3, EOM
   Marcus Kettner         : VPT2
   Christian Kollmar      : KDIIS, OOCD, Brueckner-CCSD(T), CCSD density, CASPT2, CASPT2-K
   Simone Kossmann        : Meta GGA functionals, TD-DFT gradient, OOMP2, MP2 Hessian
   Martin Krupicka        : Initial AUTO-CI
   Lucas Lang             : DCDCAS
   Marvin Lechner         : AUTO-CI (C++ implementation), FIC-MRCC
   Dagmar Lenk            : GEPOL surface, SMD
   Dimitrios Liakos       : Extrapolation schemes; Compound Job, initial MDCI parallelization
   Dimitrios Manganas     : Further ROCIS development; embedding schemes
   Dimitrios Pantazis     : SARC Basis sets
   Anastasios Papadopoulos: AUTO-CI, single reference methods and gradients
   Taras Petrenko         : DFT Hessian,TD-DFT gradient, ASA, ECA, R-Raman, ABS, FL, XAS/XES, NRVS
   Peter Pinski           : DLPNO-MP2, DLPNO-MP2 Gradient
   Christoph Reimann      : Effective Core Potentials
   Marius Retegan         : Local ZFS, SOC
   Christoph Riplinger    : Optimizer, TS searches, QM/MM, DLPNO-CCSD(T), (RO)-DLPNO pert. Triples
   Tobias Risthaus        : Range-separated hybrids, TD-DFT gradient, RPA, STAB
   Michael Roemelt        : Original ROCIS implementation
   Masaaki Saitow         : Open-shell DLPNO-CCSD energy and density
   Barbara Sandhoefer     : DKH picture change effects
   Avijit Sen             : IP-ROCIS
   Kantharuban Sivalingam : CASSCF convergence, NEVPT2, FIC-MRCI
   Bernardo de Souza      : ESD, SOC TD-DFT
   Georgi Stoychev        : AutoAux, RI-MP2 NMR, DLPNO-MP2 response
   Willem Van den Heuvel  : Paramagnetic NMR
   Boris Wezisla          : Elementary symmetry handling
   Frank Wennmohs         : Technical directorship


 We gratefully acknowledge several colleagues who have allowed us to
 interface, adapt or use parts of their codes:
   Stefan Grimme, W. Hujo, H. Kruse, P. Pracht,  : VdW corrections, initial TS optimization,
                  C. Bannwarth, S. Ehlert          DFT functionals, gCP, sTDA/sTD-DF
   Ed Valeev, F. Pavosevic, A. Kumar             : LibInt (2-el integral package), F12 methods
   Garnet Chan, S. Sharma, J. Yang, R. Olivares  : DMRG
   Ulf Ekstrom                                   : XCFun DFT Library
   Mihaly Kallay                                 : mrcc  (arbitrary order and MRCC methods)
   Jiri Pittner, Ondrej Demel                    : Mk-CCSD
   Frank Weinhold                                : gennbo (NPA and NBO analysis)
   Christopher J. Cramer and Donald G. Truhlar   : smd solvation model
   Lars Goerigk                                  : TD-DFT with DH, B97 family of functionals
   V. Asgeirsson, H. Jonsson                     : NEB implementation
   FAccTs GmbH                                   : IRC, NEB, NEB-TS, DLPNO-Multilevel, CI-OPT
                                                   MM, QMMM, 2- and 3-layer-ONIOM, Crystal-QMMM,
                                                   LR-CPCM, SF, NACMEs, symmetry and pop. for TD-DFT,
                                                   nearIR, NL-DFT gradient (VV10), updates on ESD,
                                                   ML-optimized integration grids
   S Lehtola, MJT Oliveira, MAL Marques          : LibXC Library
   Liviu Ungur et al                             : ANISO software


 Your calculation uses the libint2 library for the computation of 2-el integrals
 For citations please refer to: http://libint.valeyev.net

 Your ORCA version has been built with support for libXC version: 5.1.0
 For citations please refer to: https://tddft.org/programs/libxc/

 This ORCA versions uses:
   CBLAS   interface :  Fast vector & matrix operations
   LAPACKE interface :  Fast linear algebra routines
   SCALAPACK package :  Parallel linear algebra routines
   Shared memory     :  Shared parallel matrices


Your calculation utilizes the atom-pairwise dispersion correction
with the Becke-Johnson damping scheme (D3BJ)
Cite in your paper:
S.Grimme, S.Ehrlich, L.Goerigk, J Comput Chem, (2011), 32, 1456–1465 
S.Grimme, J.Antony, S.Ehrlich and H.Krieg, J.Chem.Phys., 132, (2010), 154104 
   

================================================================================

----- Orbital basis set information -----
Your calculation utilizes the basis: def2-TZVP
   F. Weigend and R. Ahlrichs, Phys. Chem. Chem. Phys. 7, 3297 (2005).

----- AuxJ basis set information -----
Your calculation utilizes the auxiliary basis: def2/J
   F. Weigend, Phys. Chem. Chem. Phys. 8, 1057 (2006).

================================================================================
                                        WARNINGS
                       Please study these warnings very carefully!
================================================================================


INFO   : the flag for use of the SHARK integral package has been found!

================================================================================
                                       INPUT FILE
================================================================================
NAME = ketone_c01_sp.inp
|  1> ! b3lyp d3bj def2-tzvp tightscf cpcm(CH2Cl2) printBasis
|  2> %MaxCore 1000
|  3> %pal nprocs 1 end
|  4> %scf print[p_mos] 1 end
|  5> 
|  6> *xyz 0 1
|  7> C    -0.223919  -0.802361  -0.085382
|  8> H    -0.127630  -1.876497  -0.246674
|  9> C     0.889980   0.131995   0.086689
| 10> N    -1.440542  -0.318577  -0.047757
| 11> N    -2.464839   0.158549  -0.001248
| 12> C     2.263138  -0.502781   0.022008
| 13> O     0.721212   1.331910   0.264468
| 14> H     2.424396  -0.952997  -0.971611
| 15> H     3.028082   0.262187   0.209289
| 16> H     2.350823  -1.312227   0.764819
| 17> *
| 18> 
| 19> 
| 20> 
| 21> 
| 22> 
| 23>                          ****END OF INPUT****
================================================================================

                       ****************************
                       * Single Point Calculation *
                       ****************************

---------------------------------
CARTESIAN COORDINATES (ANGSTROEM)
---------------------------------
  C     -0.223919   -0.802361   -0.085382
  H     -0.127630   -1.876497   -0.246674
  C      0.889980    0.131995    0.086689
  N     -1.440542   -0.318577   -0.047757
  N     -2.464839    0.158549   -0.001248
  C      2.263138   -0.502781    0.022008
  O      0.721212    1.331910    0.264468
  H      2.424396   -0.952997   -0.971611
  H      3.028082    0.262187    0.209289
  H      2.350823   -1.312227    0.764819

----------------------------
CARTESIAN COORDINATES (A.U.)
----------------------------
  NO LB      ZA    FRAG     MASS         X           Y           Z
   0 C     6.0000    0    12.011   -0.423146   -1.516243   -0.161349
   1 H     1.0000    0     1.008   -0.241186   -3.546065   -0.466146
   2 C     6.0000    0    12.011    1.681818    0.249434    0.163818
   3 N     7.0000    0    14.007   -2.722230   -0.602023   -0.090248
   4 N     7.0000    0    14.007   -4.657871    0.299614   -0.002358
   5 C     6.0000    0    12.011    4.276711   -0.950118    0.041589
   6 O     8.0000    0    15.999    1.362893    2.516945    0.499772
   7 H     1.0000    0     1.008    4.581444   -1.800903   -1.836079
   8 H     1.0000    0     1.008    5.722246    0.495462    0.395499
   9 H     1.0000    0     1.008    4.442412   -2.479750    1.445298

--------------------------------
INTERNAL COORDINATES (ANGSTROEM)
--------------------------------
 C      0   0   0     0.000000000000     0.00000000     0.00000000
 H      1   0   0     1.090437906201     0.00000000     0.00000000
 C      1   2   0     1.464035705158   125.37073533     0.00000000
 N      1   2   3     1.309822172438   116.74997065   179.81126089
 N      4   1   2     1.130927341241   176.63459513   176.44950114
 C      3   1   2     1.514162175892   114.67156355     0.17601677
 O      3   1   2     1.224697520978   122.51398981   179.95742796
 H      6   3   1     1.102713610318   110.01536098    62.21043500
 H      6   3   1     1.097902334965   109.41851717   182.73481928
 H      6   3   1     1.102115995647   110.56440192   303.98660071

---------------------------
INTERNAL COORDINATES (A.U.)
---------------------------
 C      0   0   0     0.000000000000     0.00000000     0.00000000
 H      1   0   0     2.060629008767     0.00000000     0.00000000
 C      1   2   0     2.766626533031   125.37073533     0.00000000
 N      1   2   3     2.475205190045   116.74997065   179.81126089
 N      4   1   2     2.137142952309   176.63459513   176.44950114
 C      3   1   2     2.861351834778   114.67156355     0.17601677
 O      3   1   2     2.314342911541   122.51398981   179.95742796
 H      6   3   1     2.083826727649   110.01536098    62.21043500
 H      6   3   1     2.074734734876   109.41851717   182.73481928
 H      6   3   1     2.082697399588   110.56440192   303.98660071

---------------------
BASIS SET INFORMATION
---------------------
There are 4 groups of distinct atoms

 Group   1 Type C   : 11s6p2d1f contracted to 5s3p2d1f pattern {62111/411/11/1}
 Group   2 Type H   : 5s1p contracted to 3s1p pattern {311/1}
 Group   3 Type N   : 11s6p2d1f contracted to 5s3p2d1f pattern {62111/411/11/1}
 Group   4 Type O   : 11s6p2d1f contracted to 5s3p2d1f pattern {62111/411/11/1}

Atom   0C    basis set group =>   1
Atom   1H    basis set group =>   2
Atom   2C    basis set group =>   1
Atom   3N    basis set group =>   3
Atom   4N    basis set group =>   3
Atom   5C    basis set group =>   1
Atom   6O    basis set group =>   4
Atom   7H    basis set group =>   2
Atom   8H    basis set group =>   2
Atom   9H    basis set group =>   2

-------------------------
BASIS SET IN INPUT FORMAT
-------------------------

 # Basis set for element : H 
 NewGTO H 
 S 3 
   1      34.0613410000      0.0254393072
   2       5.1235746000      0.1900859489
   3       1.1646626000      0.8524411301
 S 1 
   1       0.3272304100      1.0000000000
 S 1 
   1       0.1030724100      1.0000000000
 P 1 
   1       0.8000000000      1.0000000000
  end;

 # Basis set for element : C 
 NewGTO C 
 S 6 
   1   13575.3496820000      0.0006064549
   2    2035.2333680000      0.0046979088
   3     463.2256235900      0.0243324776
   4     131.2001959800      0.0973999683
   5      42.8530158910      0.3019558425
   6      15.5841857660      0.6623360915
 S 2 
   1       6.2067138508      0.6559530854
   2       2.5764896527      0.3758563329
 S 1 
   1       0.5769633942      1.0000000000
 S 1 
   1       0.2297283136      1.0000000000
 S 1 
   1       0.0951644400      1.0000000000
 P 4 
   1      34.6972322440      0.0113272200
   2       7.9582622826      0.0761696592
   3       2.3780826883      0.3019225220
   4       0.8143320818      0.7278502735
 P 1 
   1       0.2888754725      1.0000000000
 P 1 
   1       0.1005682367      1.0000000000
 D 1 
   1       1.0970000000      1.0000000000
 D 1 
   1       0.3180000000      1.0000000000
 F 1 
   1       0.7610000000      1.0000000000
  end;

 # Basis set for element : N 
 NewGTO N 
 S 6 
   1   19730.8006470000      0.0005862639
   2    2957.8958745000      0.0045428821
   3     673.2213359500      0.0235584136
   4     190.6824949400      0.0947091933
   5      62.2954418980      0.2971978492
   6      22.6541611820      0.6691624689
 S 2 
   1       8.9791477428      0.6459668363
   2       3.6863002370      0.3870057440
 S 1 
   1       0.8466007680      1.0000000000
 S 1 
   1       0.3364713377      1.0000000000
 S 1 
   1       0.1364765367      1.0000000000
 P 4 
   1      49.2003805100      0.0114488252
   2      11.3467905370      0.0784223379
   3       3.4273972411      0.3081809474
   4       1.1785525134      0.7202719637
 P 1 
   1       0.4164220497      1.0000000000
 P 1 
   1       0.1426082601      1.0000000000
 D 1 
   1       1.6540000000      1.0000000000
 D 1 
   1       0.4690000000      1.0000000000
 F 1 
   1       1.0930000000      1.0000000000
  end;

 # Basis set for element : O 
 NewGTO O 
 S 6 
   1   27032.3826310000      0.0005722733
   2    4052.3871392000      0.0044353233
   3     922.3272271000      0.0230201076
   4     261.2407098900      0.0928224906
   5      85.3546413510      0.2937850002
   6      31.0350352450      0.6740160450
 S 2 
   1      12.2608607280      0.6383993702
   2       4.9987076005      0.3953458713
 S 1 
   1       1.1703108158      1.0000000000
 S 1 
   1       0.4647474099      1.0000000000
 S 1 
   1       0.1850453636      1.0000000000
 P 4 
   1      63.2749548010      0.0120183321
   2      14.6270493790      0.0830054217
   3       4.4501223456      0.3199174393
   4       1.5275799647      0.7071554292
 P 1 
   1       0.5293511794      1.0000000000
 P 1 
   1       0.1747842127      1.0000000000
 D 1 
   1       2.3140000000      1.0000000000
 D 1 
   1       0.6450000000      1.0000000000
 F 1 
   1       1.4280000000      1.0000000000
  end;

---------------------------------
AUXILIARY/J BASIS SET INFORMATION
---------------------------------
There are 4 groups of distinct atoms

 Group   1 Type C   : 12s5p4d2f1g contracted to 6s4p3d1f1g pattern {711111/2111/211/2/1}
 Group   2 Type H   : 5s2p1d contracted to 3s1p1d pattern {311/2/1}
 Group   3 Type N   : 12s5p4d2f1g contracted to 6s4p3d1f1g pattern {711111/2111/211/2/1}
 Group   4 Type O   : 12s5p4d2f1g contracted to 6s4p3d1f1g pattern {711111/2111/211/2/1}

Atom   0C    basis set group =>   1
Atom   1H    basis set group =>   2
Atom   2C    basis set group =>   1
Atom   3N    basis set group =>   3
Atom   4N    basis set group =>   3
Atom   5C    basis set group =>   1
Atom   6O    basis set group =>   4
Atom   7H    basis set group =>   2
Atom   8H    basis set group =>   2
Atom   9H    basis set group =>   2

-------------------------------------
AUXILIARY/J BASIS SET IN INPUT FORMAT
-------------------------------------

 # Auxiliary/J basis set for element : H 
 NewAuxJGTO H 
 S 3 
   1      15.6752927000      0.1007184237
   2       3.6063578000      0.3404257499
   3       1.2080016000      0.6491996172
 S 1 
   1       0.4726794000      1.0000000000
 S 1 
   1       0.2018100000      1.0000000000
 P 2 
   1       2.0281365000      0.5596620919
   2       0.5358730000      0.5596620919
 D 1 
   1       2.2165124000      1.0000000000
  end;

 # Auxiliary/J basis set for element : C 
 NewAuxJGTO C 
 S 7 
   1    1861.0916331000      0.0134602335
   2     642.9939764000      0.0299160374
   3     235.1105725000      0.1008649584
   4      90.7028894000      0.2370970548
   5      36.7794552000      0.3924037254
   6      15.6046273000      0.3195862154
   7       6.8907294000      0.0530104441
 S 1 
   1       3.1478850000     -1.0000000000
 S 1 
   1       1.4777287000      1.0000000000
 S 1 
   1       0.7076466000      1.0000000000
 S 1 
   1       0.3430122000      1.0000000000
 S 1 
   1       0.1669453000      1.0000000000
 P 2 
   1      13.5472892000     -0.6769313712
   2       5.4669419000     -0.3779500978
 P 1 
   1       2.1751721000      1.0000000000
 P 1 
   1       0.8582194000      1.0000000000
 P 1 
   1       0.3376720000      1.0000000000
 D 2 
   1       5.9287253000     -0.3533329857
   2       1.9809209000     -0.7456525731
 D 1 
   1       0.8055417000     -1.0000000000
 D 1 
   1       0.3531244000     -1.0000000000
 F 2 
   1       1.6755626000      0.6311076882
   2       0.5997536000      0.4968166032
 G 1 
   1       1.0024600000     -1.0000000000
  end;

 # Auxiliary/J basis set for element : N 
 NewAuxJGTO N 
 S 7 
   1    2542.9401785000      0.0128431329
   2    1029.5472946000      0.0206655120
   3     424.9053546000      0.0652200677
   4     178.4573708000      0.1617388940
   5      76.1362742000      0.3094256941
   6      32.9338653000      0.3918849307
   7      14.4155436000      0.1822470660
 S 1 
   1       6.3718891000     -1.0000000000
 S 1 
   1       2.8381742000      1.0000000000
 S 1 
   1       1.2711793000      1.0000000000
 S 1 
   1       0.5712407000      1.0000000000
 S 1 
   1       0.2569887000      1.0000000000
 P 2 
   1      17.8975990000     -1.0974070137
   2       6.5346319000      0.1380055963
 P 1 
   1       2.3523645000      1.0000000000
 P 1 
   1       0.8397377000      1.0000000000
 P 1 
   1       0.2989335000      1.0000000000
 D 2 
   1       7.6909870000      0.1770780943
   2       2.3044972000      0.8918319220
 D 1 
   1       0.8403987000      1.0000000000
 D 1 
   1       0.3303797000      1.0000000000
 F 2 
   1       2.3331076000      0.6223178877
   2       0.8446137000      0.5036714203
 G 1 
   1       1.4037700000     -1.0000000000
  end;

 # Auxiliary/J basis set for element : O 
 NewAuxJGTO O 
 S 7 
   1    2876.8216605000      0.0168151159
   2    1004.7443032000      0.0340137548
   3     369.7579954000      0.1194951309
   4     142.9442404000      0.2664627624
   5      57.8366425000      0.4202764046
   6      24.3864983000      0.2765077335
   7      10.6622662000      0.0057008815
 S 1 
   1       4.8070437000     -1.0000000000
 S 1 
   1       2.2210770000      1.0000000000
 S 1 
   1       1.0447795000      1.0000000000
 S 1 
   1       0.4968425000      1.0000000000
 S 1 
   1       0.2371384000      1.0000000000
 P 2 
   1      64.2613382000     -0.2731534179
   2      16.3006076000     -0.8168011598
 P 1 
   1       4.3550542000      1.0000000000
 P 1 
   1       1.2019554000      1.0000000000
 P 1 
   1       0.3354196000      1.0000000000
 D 2 
   1       9.2146611000     -0.4661230638
   2       2.8435251000     -0.6600908911
 D 1 
   1       0.9955759000     -1.0000000000
 D 1 
   1       0.3649441000     -1.0000000000
 F 2 
   1       2.6420115000      0.5931563945
   2       0.7345613000      0.5931563945
 G 1 
   1       1.3931000000     -1.0000000000
  end;

------------------------------------------------------------------------------
                           ORCA GTO INTEGRAL CALCULATION
                           -- RI-GTO INTEGRALS CHOSEN --
------------------------------------------------------------------------------
------------------------------------------------------------------------------
                   ___                                                        
                  /   \      - P O W E R E D   B Y -                         
                 /     \                                                     
                 |  |  |   _    _      __       _____    __    __             
                 |  |  |  | |  | |    /  \     |  _  \  |  |  /  |          
                  \  \/   | |  | |   /    \    | | | |  |  | /  /          
                 / \  \   | |__| |  /  /\  \   | |_| |  |  |/  /          
                |  |  |   |  __  | /  /__\  \  |    /   |      \           
                |  |  |   | |  | | |   __   |  |    \   |  |\   \          
                \     /   | |  | | |  |  |  |  | |\  \  |  | \   \       
                 \___/    |_|  |_| |__|  |__|  |_| \__\ |__|  \__/        
                                                                              
                      - O R C A' S   B I G   F R I E N D -                    
                                      &                                       
                       - I N T E G R A L  F E E D E R -                       
                                                                              
 v1 FN, 2020, v2 2021                                                         
------------------------------------------------------------------------------


Reading SHARK input file ketone_c01_sp.SHARKINP.tmp ... ok
----------------------
SHARK INTEGRAL PACKAGE
----------------------

Number of atoms                             ...     10
Number of basis functions                   ...    210
Number of shells                            ...     82
Maximum angular momentum                    ...      3
Integral batch strategy                     ... SHARK/LIBINT Hybrid
RI-J (if used) integral strategy            ... SPLIT-RIJ (Revised 2003 algorithm where possible)
Printlevel                                  ...      1
Contraction scheme used                     ... SEGMENTED contraction
Coulomb Range Separation                    ... NOT USED
Exchange Range Separation                   ... NOT USED
Finite Nucleus Model                        ... NOT USED
Auxiliary Coulomb fitting basis             ... AVAILABLE
   # of basis functions in Aux-J            ...    338
   # of shells in Aux-J                     ...    110
   Maximum angular momentum in Aux-J        ...      4
Auxiliary J/K fitting basis                 ... NOT available
Auxiliary Correlation fitting basis         ... NOT available
Auxiliary 'external' fitting basis          ... NOT available
Integral threshold                          ...     2.500000e-11
Primitive cut-off                           ...     2.500000e-12
Primitive pair pre-selection threshold      ...     2.500000e-12

Calculating pre-screening integrals         ... done (  0.0 sec) Dimension = 82
Organizing shell pair data                  ... done (  0.0 sec)
Shell pair information
Total number of shell pairs                 ...      3403
Shell pairs after pre-screening             ...      3170
Total number of primitive shell pairs       ...     10584
Primitive shell pairs kept                  ...      7607
          la=0 lb=0:    803 shell pairs
          la=1 lb=0:    875 shell pairs
          la=1 lb=1:    248 shell pairs
          la=2 lb=0:    465 shell pairs
          la=2 lb=1:    256 shell pairs
          la=2 lb=2:     76 shell pairs
          la=3 lb=0:    231 shell pairs
          la=3 lb=1:    126 shell pairs
          la=3 lb=2:     70 shell pairs
          la=3 lb=3:     20 shell pairs

Calculating one electron integrals          ... done (  0.0 sec)
Calculating RI/J V-Matrix + Cholesky decomp.... done (  0.0 sec)
Calculating Nuclear repulsion               ... done (  0.0 sec) ENN=    206.957595905446 Eh

SHARK setup successfully completed in   0.2 seconds

Maximum memory used throughout the entire GTOINT-calculation: 52.9 MB
-------------------------------------------------------------------------------
                                 ORCA SCF
-------------------------------------------------------------------------------

------------
SCF SETTINGS
------------
Hamiltonian:
 Density Functional     Method          .... DFT(GTOs)
 Exchange Functional    Exchange        .... B88
   X-Alpha parameter    XAlpha          ....  0.666667
   Becke's b parameter  XBeta           ....  0.004200
 Correlation Functional Correlation     .... LYP
 LDA part of GGA corr.  LDAOpt          .... VWN-5
 Gradients option       PostSCFGGA      .... off
 Hybrid DFT is turned on
   Fraction HF Exchange ScalHFX         ....  0.200000
   Scaling of DF-GGA-X  ScalDFX         ....  0.720000
   Scaling of DF-GGA-C  ScalDFC         ....  0.810000
   Scaling of DF-LDA-C  ScalLDAC        ....  1.000000
   Perturbative correction              ....  0.000000
   Density functional embedding theory  .... OFF
   NL short-range parameter             ....  4.800000
 RI-approximation to the Coulomb term is turned on
   Number of AuxJ basis functions       .... 338
   RIJ-COSX (HFX calculated with COS-X)).... on


General Settings:
 Integral files         IntName         .... ketone_c01_sp
 Hartree-Fock type      HFTyp           .... RHF
 Total Charge           Charge          ....    0
 Multiplicity           Mult            ....    1
 Number of Electrons    NEL             ....   44
 Basis Dimension        Dim             ....  210
 Nuclear Repulsion      ENuc            ....    206.9575959054 Eh

Convergence Acceleration:
 DIIS                   CNVDIIS         .... on
   Start iteration      DIISMaxIt       ....    12
   Startup error        DIISStart       ....  0.200000
   # of expansion vecs  DIISMaxEq       ....     5
   Bias factor          DIISBfac        ....   1.050
   Max. coefficient     DIISMaxC        ....  10.000
 Trust-Rad. Augm. Hess. CNVTRAH         .... auto
   Auto Start mean grad. ratio tolernc. ....  1.125000
   Auto Start start iteration           ....    20
   Auto Start num. interpolation iter.  ....    10
   Max. Number of Micro iterations      ....    16
   Max. Number of Macro iterations      .... Maxiter - #DIIS iter
   Number of Davidson start vectors     ....     2
   Converg. threshold I  (grad. norm)   ....   1.000e-05
   Converg. threshold II (energy diff.) ....   1.000e-08
   Grad. Scal. Fac. for Micro threshold ....   0.100
   Minimum threshold for Micro iter.    ....   0.010
   NR start threshold (gradient norm)   ....   0.001
   Initial trust radius                 ....   0.400
   Minimum AH scaling param. (alpha)    ....   1.000
   Maximum AH scaling param. (alpha)    .... 1000.000
   Orbital update algorithm             .... Taylor
   White noise on init. David. guess    .... on
   Maximum white noise                  ....   0.010
   Quad. conv. algorithm                .... NR
 SOSCF                  CNVSOSCF        .... on
   Start iteration      SOSCFMaxIt      ....   150
   Startup grad/error   SOSCFStart      ....  0.003300
 Level Shifting         CNVShift        .... on
   Level shift para.    LevelShift      ....    0.2500
   Turn off err/grad.   ShiftErr        ....    0.0010
 Zerner damping         CNVZerner       .... off
 Static damping         CNVDamp         .... on
   Fraction old density DampFac         ....    0.7000
   Max. Damping (<1)    DampMax         ....    0.9800
   Min. Damping (>=0)   DampMin         ....    0.0000
   Turn off err/grad.   DampErr         ....    0.1000
 Fernandez-Rico         CNVRico         .... off

SCF Procedure:
 Maximum # iterations   MaxIter         ....   125
 SCF integral mode      SCFMode         .... Direct
   Integral package                     .... SHARK and LIBINT hybrid scheme
 Reset frequency        DirectResetFreq ....    20
 Integral Threshold     Thresh          ....  2.500e-11 Eh
 Primitive CutOff       TCut            ....  2.500e-12 Eh

Convergence Tolerance:
 Convergence Check Mode ConvCheckMode   .... Total+1el-Energy
 Convergence forced     ConvForced      .... 0
 Energy Change          TolE            ....  1.000e-08 Eh
 1-El. energy change                    ....  1.000e-05 Eh
 Orbital Gradient       TolG            ....  1.000e-05
 Orbital Rotation angle TolX            ....  1.000e-05
 DIIS Error             TolErr          ....  5.000e-07


Diagonalization of the overlap matrix:
Smallest eigenvalue                        ... 1.664e-04
Time for diagonalization                   ...    0.025 sec
Threshold for overlap eigenvalues          ... 1.000e-08
Number of eigenvalues below threshold      ... 0
Time for construction of square roots      ...    0.002 sec
Total time needed                          ...    0.027 sec

Time for model grid setup =    0.096 sec

------------------------------
INITIAL GUESS: MODEL POTENTIAL
------------------------------
Loading Hartree-Fock densities                     ... done
Calculating cut-offs                               ... done
Initializing the effective Hamiltonian             ... done
Setting up the integral package (SHARK)            ... done
Starting the Coulomb interaction                   ... done (   0.1 sec)
Reading the grid                                   ... done
Mapping shells                                     ... done
Starting the XC term evaluation                    ... done (   0.2 sec)
  promolecular density results
     # of electrons  =     43.998804205
     EX              =    -37.886906846
     EC              =     -1.501283540
     EX+EC           =    -39.388190386
Transforming the Hamiltonian                       ... done (   0.0 sec)
Diagonalizing the Hamiltonian                      ... done (   0.0 sec)
Back transforming the eigenvectors                 ... done (   0.0 sec)
Now organizing SCF variables                       ... done
                      ------------------
                      INITIAL GUESS DONE (   0.4 sec)
                      ------------------
-------------------
DFT GRID GENERATION
-------------------

General Integration Accuracy     IntAcc      ... 4.388
Radial Grid Type                 RadialGrid  ... OptM3 with GC (2021)
Angular Grid (max. ang.)         AngularGrid ... 4 (Lebedev-302)
Angular grid pruning method      GridPruning ... 4 (adaptive)
Weight generation scheme         WeightScheme... Becke
Basis function cutoff            BFCut       ... 1.0000e-11
Integration weight cutoff        WCut        ... 1.0000e-14
Angular grids for H and He will be reduced by one unit
Partially contracted basis set               ... off
Rotationally invariant grid construction     ... off

Total number of grid points                  ...    49426
Total number of batches                      ...      779
Average number of points per batch           ...       63
Average number of grid points per atom       ...     4943
Time for grid setup =    0.371 sec

--------------------
COSX GRID GENERATION
--------------------

GRIDX 1
-------
General Integration Accuracy     IntAcc      ... 3.816
Radial Grid Type                 RadialGrid  ... OptM3 with GC (2021)
Angular Grid (max. ang.)         AngularGrid ... 1 (Lebedev-50)
Angular grid pruning method      GridPruning ... 4 (adaptive)
Weight generation scheme         WeightScheme... Becke
Basis function cutoff            BFCut       ... 1.0000e-11
Integration weight cutoff        WCut        ... 1.0000e-14
Angular grids for H and He will be reduced by one unit
Partially contracted basis set               ... on
Rotationally invariant grid construction     ... off

Total number of grid points                  ...     6313
Total number of batches                      ...      104
Average number of points per batch           ...       60
Average number of grid points per atom       ...      631
UseSFitting                                  ... on

GRIDX 2
-------
General Integration Accuracy     IntAcc      ... 4.020
Radial Grid Type                 RadialGrid  ... OptM3 with GC (2021)
Angular Grid (max. ang.)         AngularGrid ... 2 (Lebedev-110)
Angular grid pruning method      GridPruning ... 4 (adaptive)
Weight generation scheme         WeightScheme... Becke
Basis function cutoff            BFCut       ... 1.0000e-11
Integration weight cutoff        WCut        ... 1.0000e-14
Angular grids for H and He will be reduced by one unit
Partially contracted basis set               ... on
Rotationally invariant grid construction     ... off

Total number of grid points                  ...    14162
Total number of batches                      ...      227
Average number of points per batch           ...       62
Average number of grid points per atom       ...     1416
UseSFitting                                  ... on

GRIDX 3
-------
General Integration Accuracy     IntAcc      ... 4.338
Radial Grid Type                 RadialGrid  ... OptM3 with GC (2021)
Angular Grid (max. ang.)         AngularGrid ... 3 (Lebedev-194)
Angular grid pruning method      GridPruning ... 4 (adaptive)
Weight generation scheme         WeightScheme... Becke
Basis function cutoff            BFCut       ... 1.0000e-11
Integration weight cutoff        WCut        ... 1.0000e-14
Angular grids for H and He will be reduced by one unit
Partially contracted basis set               ... on
Rotationally invariant grid construction     ... off

Total number of grid points                  ...    31260
Total number of batches                      ...      494
Average number of points per batch           ...       63
Average number of grid points per atom       ...     3126
UseSFitting                                  ... on

Time for X-Grid setup             =    0.511 sec


--------------------
CPCM SOLVATION MODEL
--------------------
CPCM parameters:
  Epsilon                                         ...       9.0800
  Refrac                                          ...       1.4240
  Rsolv                                           ...       1.3000
  Surface type                                    ... GAUSSIAN VDW
  Epsilon function type                           ...         CPCM
Radii:
 Radius for C  used is    3.8550 Bohr (=   2.0400 Ang.)
 Radius for H  used is    2.4944 Bohr (=   1.3200 Ang.)
 Radius for N  used is    3.5149 Bohr (=   1.8600 Ang.)
 Radius for O  used is    3.4469 Bohr (=   1.8240 Ang.)
Calculating surface                               ...        done! (  0.0s)
GEPOL surface points                              ...          653
GEPOL Volume                                      ...     730.0689
GEPOL Surface-area                                ...     457.7818
Calculating surface distance matrix               ...        done! (  0.0s)
Performing Cholesky decomposition & store         ...        done! (  0.0s)
Overall time for CPCM initialization              ...                 0.0s
--------------
SCF ITERATIONS
--------------
ITER       Energy         Delta-E        Max-DP      RMS-DP      [F,P]     Damp
               ***  Starting incremental Fock matrix formation  ***
  0   -301.1897539823   0.000000000000 0.11543986  0.00176891  0.3148419 0.7000
  1   -301.2763852973  -0.086631315015 0.10708022  0.00138158  0.1191241 0.7000
                               ***Turning on DIIS***
  2   -301.3066978199  -0.030312522630 0.11479935  0.00171881  0.0396826 0.0000
  3   -301.3579954927  -0.051297672762 0.11270650  0.00127160  0.0676336 0.0000
  4   -301.3685560583  -0.010560565673 0.03042130  0.00036259  0.0194597 0.0000
  5   -301.3695017073  -0.000945648989 0.01266635  0.00014994  0.0050353 0.0000
                      *** Initiating the SOSCF procedure ***
                           *** Shutting down DIIS ***
                      *** Re-Reading the Fockian *** 
                      *** Removing any level shift *** 
ITER      Energy       Delta-E        Grad      Rot      Max-DP    RMS-DP
  6   -301.36956227  -0.0000605636  0.000637  0.000637  0.005156  0.000063
               *** Restarting incremental Fock matrix formation ***
  7   -301.36955784   0.0000044329  0.000356  0.001794  0.002806  0.000039
  8   -301.36955661   0.0000012257  0.000637  0.000985  0.001633  0.000023
  9   -301.36956137  -0.0000047530  0.000093  0.000546  0.001057  0.000014
 10   -301.36956137  -0.0000000010  0.000097  0.000150  0.000227  0.000004
 11   -301.36956159  -0.0000002226  0.000040  0.000162  0.000447  0.000005
 12   -301.36956159   0.0000000036  0.000026  0.000046  0.000126  0.000002
 13   -301.36956161  -0.0000000273  0.000004  0.000026  0.000055  0.000001
 14   -301.36956161  -0.0000000008  0.000005  0.000012  0.000005  0.000000
                  ***Gradient check signals convergence***
              ***Rediagonalizing the Fockian in SOSCF/NRSCF***

               *****************************************************
               *                     SUCCESS                       *
               *           SCF CONVERGED AFTER  15 CYCLES          *
               *****************************************************

Old exchange energy                            =     -7.652106781 Eh
New exchange energy                            =     -7.652106812 Eh
Exchange energy change after final integration =     -0.000000031 Eh
Total energy after final integration           =   -301.369561645 Eh
Final COS-X integration done in                =     6.923 sec

----------------
TOTAL SCF ENERGY
----------------

Total Energy       :         -301.36956165 Eh           -8200.68269 eV

Components:
Nuclear Repulsion  :          206.95759591 Eh            5631.60249 eV
Electronic Energy  :         -508.32715755 Eh          -13832.28518 eV
One Electron Energy:         -817.96436404 Eh          -22257.94192 eV
Two Electron Energy:          309.63720649 Eh            8425.65674 eV
Max COSX asymmetry :            0.00000188 Eh               0.00005 eV
CPCM Dielectric    :           -0.01222646 Eh              -0.33270 eV

Virial components:
Potential Energy   :         -601.34781924 Eh          -16363.50607 eV
Kinetic Energy     :          299.97825760 Eh            8162.82338 eV
Virial Ratio       :            2.00463802


DFT components:
N(Alpha)           :       21.999998759427 electrons
N(Beta)            :       21.999998759427 electrons
N(Total)           :       43.999997518854 electrons
E(X)               :      -30.498011106576 Eh       
E(C)               :       -1.775378897718 Eh       
E(XC)              :      -32.273390004294 Eh       
DFET-embed. en.    :        0.000000000000 Eh       
CPCM Solvation Model Properties:
Surface-charge          :           -0.01822989
Charge-correction       :           -0.00008496 Eh              -0.00231 eV
Free-energy (cav+disp)  :  This term is not implemented in the current solvation scheme

---------------
SCF CONVERGENCE
---------------

  Last Energy change         ...   -7.2487e-10  Tolerance :   1.0000e-08
  Last MAX-Density change    ...    1.5543e-15  Tolerance :   1.0000e-07
  Last RMS-Density change    ...    2.1144e-17  Tolerance :   5.0000e-09
  Last Orbital Gradient      ...    1.1958e-06  Tolerance :   1.0000e-05
  Last Orbital Rotation      ...    9.7582e-06  Tolerance :   1.0000e-05

             **** THE GBW FILE WAS UPDATED (ketone_c01_sp.gbw) ****
             **** DENSITY ketone_c01_sp.scfp WAS UPDATED ****
             **** ENERGY FILE WAS UPDATED (ketone_c01_sp.en.tmp) ****
             **** THE GBW FILE WAS UPDATED (ketone_c01_sp.gbw) ****
             **** DENSITY ketone_c01_sp.scfp WAS UPDATED ****
----------------
ORBITAL ENERGIES
----------------

  NO   OCC          E(Eh)            E(eV) 
   0   2.0000     -19.111846      -520.0598 
   1   2.0000     -14.478755      -393.9870 
   2   2.0000     -14.418372      -392.3439 
   3   2.0000     -10.271808      -279.5101 
   4   2.0000     -10.223350      -278.1915 
   5   2.0000     -10.173572      -276.8370 
   6   2.0000      -1.136435       -30.9240 
   7   2.0000      -1.041791       -28.3486 
   8   2.0000      -0.868922       -23.6446 
   9   2.0000      -0.750272       -20.4159 
  10   2.0000      -0.622874       -16.9493 
  11   2.0000      -0.547130       -14.8882 
  12   2.0000      -0.507870       -13.8198 
  13   2.0000      -0.496447       -13.5090 
  14   2.0000      -0.476406       -12.9637 
  15   2.0000      -0.440364       -11.9829 
  16   2.0000      -0.438861       -11.9420 
  17   2.0000      -0.423106       -11.5133 
  18   2.0000      -0.392387       -10.6774 
  19   2.0000      -0.365366        -9.9421 
  20   2.0000      -0.267558        -7.2806 
  21   2.0000      -0.248577        -6.7641 
  22   0.0000      -0.069583        -1.8935 
  23   0.0000      -0.052312        -1.4235 
  24   0.0000       0.045117         1.2277 
  25   0.0000       0.047915         1.3038 
  26   0.0000       0.089532         2.4363 
  27   0.0000       0.106065         2.8862 
  28   0.0000       0.123237         3.3535 
  29   0.0000       0.138287         3.7630 
  30   0.0000       0.147299         4.0082 
  31   0.0000       0.172881         4.7043 
  32   0.0000       0.186015         5.0617 
  33   0.0000       0.212999         5.7960 
  34   0.0000       0.225310         6.1310 
  35   0.0000       0.232831         6.3357 
  36   0.0000       0.260845         7.0980 
  37   0.0000       0.288165         7.8414 
  38   0.0000       0.291405         7.9295 
  39   0.0000       0.293541         7.9877 
  40   0.0000       0.340439         9.2638 
  41   0.0000       0.350087         9.5264 
  42   0.0000       0.366217         9.9653 
  43   0.0000       0.371456        10.1078 
  44   0.0000       0.383326        10.4308 
  45   0.0000       0.402582        10.9548 
  46   0.0000       0.407413        11.0863 
  47   0.0000       0.426708        11.6113 
  48   0.0000       0.451022        12.2729 
  49   0.0000       0.457698        12.4546 
  50   0.0000       0.474576        12.9139 
  51   0.0000       0.477587        12.9958 
  52   0.0000       0.527182        14.3453 
  53   0.0000       0.542557        14.7637 
  54   0.0000       0.557581        15.1726 
  55   0.0000       0.587712        15.9924 
  56   0.0000       0.604282        16.4433 
  57   0.0000       0.623020        16.9532 
  58   0.0000       0.647970        17.6321 
  59   0.0000       0.694597        18.9009 
  60   0.0000       0.706198        19.2166 
  61   0.0000       0.709277        19.3004 
  62   0.0000       0.820220        22.3193 
  63   0.0000       0.824647        22.4398 
  64   0.0000       0.838623        22.8201 
  65   0.0000       0.844660        22.9844 
  66   0.0000       0.866679        23.5835 
  67   0.0000       0.896202        24.3869 
  68   0.0000       0.934426        25.4270 
  69   0.0000       0.953006        25.9326 
  70   0.0000       0.966163        26.2906 
  71   0.0000       0.981797        26.7160 
  72   0.0000       1.047040        28.4914 
  73   0.0000       1.071879        29.1673 
  74   0.0000       1.096877        29.8476 
  75   0.0000       1.137822        30.9617 
  76   0.0000       1.178956        32.0810 
  77   0.0000       1.276409        34.7329 
  78   0.0000       1.284695        34.9583 
  79   0.0000       1.337610        36.3982 
  80   0.0000       1.340986        36.4901 
  81   0.0000       1.356357        36.9084 
  82   0.0000       1.427092        38.8331 
  83   0.0000       1.450783        39.4778 
  84   0.0000       1.457259        39.6540 
  85   0.0000       1.485408        40.4200 
  86   0.0000       1.507488        41.0208 
  87   0.0000       1.522655        41.4335 
  88   0.0000       1.538516        41.8652 
  89   0.0000       1.582185        43.0534 
  90   0.0000       1.597879        43.4805 
  91   0.0000       1.615399        43.9573 
  92   0.0000       1.661661        45.2161 
  93   0.0000       1.714005        46.6405 
  94   0.0000       1.721190        46.8360 
  95   0.0000       1.755229        47.7622 
  96   0.0000       1.787957        48.6528 
  97   0.0000       1.821491        49.5653 
  98   0.0000       1.842179        50.1282 
  99   0.0000       1.869222        50.8641 
 100   0.0000       1.945159        52.9305 
 101   0.0000       1.948060        53.0094 
 102   0.0000       2.000814        54.4449 
 103   0.0000       2.038366        55.4668 
 104   0.0000       2.047957        55.7277 
 105   0.0000       2.088057        56.8189 
 106   0.0000       2.104647        57.2704 
 107   0.0000       2.135278        58.1039 
 108   0.0000       2.179728        59.3134 
 109   0.0000       2.198374        59.8208 
 110   0.0000       2.237016        60.8723 
 111   0.0000       2.255576        61.3773 
 112   0.0000       2.261120        61.5282 
 113   0.0000       2.289381        62.2972 
 114   0.0000       2.339927        63.6727 
 115   0.0000       2.350528        63.9611 
 116   0.0000       2.408740        65.5451 
 117   0.0000       2.455365        66.8139 
 118   0.0000       2.504871        68.1610 
 119   0.0000       2.539906        69.1144 
 120   0.0000       2.605110        70.8886 
 121   0.0000       2.610705        71.0409 
 122   0.0000       2.614285        71.1383 
 123   0.0000       2.672158        72.7131 
 124   0.0000       2.724423        74.1353 
 125   0.0000       2.735217        74.4290 
 126   0.0000       2.744852        74.6912 
 127   0.0000       2.810408        76.4751 
 128   0.0000       2.845870        77.4401 
 129   0.0000       2.945113        80.1406 
 130   0.0000       2.986527        81.2675 
 131   0.0000       3.004836        81.7657 
 132   0.0000       3.019729        82.1710 
 133   0.0000       3.052984        83.0759 
 134   0.0000       3.069492        83.5251 
 135   0.0000       3.101929        84.4078 
 136   0.0000       3.122390        84.9645 
 137   0.0000       3.127930        85.1153 
 138   0.0000       3.161576        86.0309 
 139   0.0000       3.181717        86.5789 
 140   0.0000       3.218983        87.5930 
 141   0.0000       3.233497        87.9879 
 142   0.0000       3.253413        88.5299 
 143   0.0000       3.337245        90.8110 
 144   0.0000       3.361059        91.4591 
 145   0.0000       3.392518        92.3151 
 146   0.0000       3.411132        92.8216 
 147   0.0000       3.430308        93.3434 
 148   0.0000       3.488695        94.9322 
 149   0.0000       3.493649        95.0670 
 150   0.0000       3.524701        95.9120 
 151   0.0000       3.608141        98.1825 
 152   0.0000       3.618440        98.4627 
 153   0.0000       3.647454        99.2523 
 154   0.0000       3.666293        99.7649 
 155   0.0000       3.718781       101.1932 
 156   0.0000       3.771721       102.6337 
 157   0.0000       3.832228       104.2802 
 158   0.0000       3.860755       105.0565 
 159   0.0000       3.905065       106.2622 
 160   0.0000       3.953219       107.5726 
 161   0.0000       3.985151       108.4415 
 162   0.0000       3.988941       108.5446 
 163   0.0000       4.061172       110.5101 
 164   0.0000       4.117059       112.0309 
 165   0.0000       4.172694       113.5448 
 166   0.0000       4.233924       115.2109 
 167   0.0000       4.247720       115.5863 
 168   0.0000       4.287655       116.6730 
 169   0.0000       4.313345       117.3721 
 170   0.0000       4.333502       117.9206 
 171   0.0000       4.371234       118.9473 
 172   0.0000       4.374827       119.0451 
 173   0.0000       4.427657       120.4827 
 174   0.0000       4.521445       123.0348 
 175   0.0000       4.531068       123.2966 
 176   0.0000       4.572129       124.4139 
 177   0.0000       4.622905       125.7956 
 178   0.0000       4.688303       127.5752 
 179   0.0000       4.696959       127.8108 
 180   0.0000       4.758706       129.4910 
 181   0.0000       4.831873       131.4820 
 182   0.0000       4.875919       132.6805 
 183   0.0000       5.025982       136.7639 
 184   0.0000       5.161086       140.4403 
 185   0.0000       5.183211       141.0423 
 186   0.0000       5.183869       141.0603 
 187   0.0000       5.212478       141.8387 
 188   0.0000       5.337478       145.2401 
 189   0.0000       5.441176       148.0619 
 190   0.0000       5.584957       151.9744 
 191   0.0000       5.692781       154.9084 
 192   0.0000       6.092834       165.7944 
 193   0.0000       6.290286       171.1674 
 194   0.0000       6.370141       173.3404 
 195   0.0000       6.419953       174.6958 
 196   0.0000       6.424180       174.8108 
 197   0.0000       6.505744       177.0303 
 198   0.0000       6.536845       177.8766 
 199   0.0000       6.659699       181.2196 
 200   0.0000       6.804789       185.1677 
 201   0.0000       7.022167       191.0829 
 202   0.0000       7.042265       191.6298 
 203   0.0000       7.067076       192.3049 
 204   0.0000      22.275562       606.1489 
 205   0.0000      22.686988       617.3443 
 206   0.0000      23.007490       626.0656 
 207   0.0000      31.637590       860.9026 
 208   0.0000      32.906698       895.4368 
 209   0.0000      43.867074      1193.6838 
------------------
MOLECULAR ORBITALS
------------------
                      0         1         2         3         4         5   
                 -19.11185 -14.47876 -14.41837 -10.27181 -10.22335 -10.17357
                   2.00000   2.00000   2.00000   2.00000   2.00000   2.00000
                  --------  --------  --------  --------  --------  --------
  0C   1s        -0.000010 -0.000052  0.000003  0.001525 -0.466835 -0.000024
  0C   2s         0.000050  0.000262 -0.000015  0.002104 -0.608025  0.000004
  0C   3s        -0.000480 -0.000020 -0.000431  0.000338 -0.041245 -0.000300
  0C   4s        -0.001997 -0.021299 -0.005158  0.002752  0.024701  0.003163
  0C   5s        -0.000225  0.005112 -0.001523 -0.016406 -0.000021  0.000697
  0C   1pz       -0.000013 -0.000034 -0.000012  0.000005 -0.000148 -0.000014
  0C   1px        0.000011  0.000872  0.000213  0.000117  0.002226 -0.000173
  0C   1py       -0.000094 -0.000390 -0.000119  0.000026 -0.001480 -0.000079
  0C   2pz       -0.000531 -0.000299 -0.000081  0.000391  0.000442  0.000592
  0C   2px       -0.004970  0.017456  0.001106  0.001631  0.007578  0.008275
  0C   2py       -0.002563 -0.005466 -0.000830  0.002250  0.001542  0.002423
  0C   3pz       -0.000581  0.000667  0.000291 -0.000078  0.000488 -0.000000
  0C   3px        0.003156 -0.002840  0.000956 -0.003735 -0.006414  0.002989
  0C   3py       -0.004398  0.004739  0.001622  0.000201  0.004513 -0.000043
  0C   1dz2       0.000076  0.000426  0.000021  0.000170  0.001592  0.000009
  0C   1dxz      -0.000011  0.000024  0.000004 -0.000030 -0.000043  0.000012
  0C   1dyz      -0.000032 -0.000019 -0.000015 -0.000055 -0.000302  0.000002
  0C   1dx2y2     0.000055 -0.000532  0.000057  0.000041 -0.000724 -0.000019
  0C   1dxy      -0.000068  0.000417  0.000015 -0.000150  0.000402  0.000060
  0C   2dz2      -0.000636  0.002449 -0.000241  0.000147  0.001012  0.000093
  0C   2dxz      -0.000437  0.000426 -0.000150 -0.000250  0.000584  0.000437
  0C   2dyz      -0.000002 -0.000126  0.000119  0.000251 -0.000145 -0.000010
  0C   2dx2y2     0.000533 -0.002569 -0.000486 -0.002120 -0.000046  0.000436
  0C   2dxy      -0.003129  0.004184 -0.000893 -0.001268  0.004208  0.003204
  0C   1f0       -0.000024  0.000008 -0.000025  0.000130 -0.000131 -0.000033
  0C   1f+1       0.000098 -0.000216  0.000172  0.000395 -0.000660 -0.000257
  0C   1f-1      -0.000084  0.000069 -0.000096  0.000265 -0.000187 -0.000042
  0C   1f+2      -0.000018  0.000077  0.000014 -0.000080 -0.000250 -0.000004
  0C   1f-2      -0.000030  0.000040 -0.000022 -0.000254 -0.000004  0.000012
  0C   1f+3      -0.000052 -0.000090  0.000043 -0.000628 -0.000665 -0.000203
  0C   1f-3      -0.000023 -0.000235 -0.000248  0.000796  0.001329  0.000074
  1H   1s         0.000039 -0.000266 -0.000057  0.000090  0.000612  0.000093
  1H   2s        -0.001538  0.000623 -0.000399 -0.000780  0.002531  0.000999
  1H   3s        -0.002167  0.001738  0.001255  0.003221  0.003192  0.000152
  1H   1pz       -0.000048  0.000020 -0.000018 -0.000017  0.000343  0.000055
  1H   1px       -0.000302 -0.000082 -0.000087 -0.000219  0.000109  0.000188
  1H   1py       -0.000259  0.000153 -0.000098 -0.000061  0.002227  0.000320
  2C   1s        -0.000052 -0.000010 -0.000000  0.466923  0.001610  0.000581
  2C   2s         0.000301  0.000054  0.000002  0.608098  0.001956  0.000668
  2C   3s        -0.000857 -0.000210  0.000080  0.040561  0.000545  0.000316
  2C   4s        -0.001247 -0.002798  0.000280 -0.024862 -0.007615 -0.006620
  2C   5s         0.001683 -0.007074 -0.002474  0.026043  0.001757  0.011231
  2C   1pz       -0.000081  0.000003  0.000005  0.000082  0.000011 -0.000010
  2C   1px        0.000143  0.000147 -0.000038 -0.000281  0.000309 -0.000615
  2C   1py       -0.000579 -0.000003  0.000042  0.000624  0.000036  0.000025
  2C   2pz       -0.001838  0.000381 -0.000170  0.001995  0.000509  0.000513
  2C   2px       -0.001170  0.000412  0.000017 -0.005035  0.000591  0.006493
  2C   2py       -0.011801  0.002405 -0.001143  0.013875  0.003174  0.002208
  2C   3pz        0.000992  0.000162  0.000108 -0.001340  0.000029  0.000240
  2C   3px       -0.003481  0.000346  0.000708  0.003928  0.001727  0.006128
  2C   3py        0.007367  0.000985  0.000628 -0.009755 -0.000387  0.000180
  2C   1dz2       0.000226  0.000071  0.000025 -0.001783 -0.000169 -0.000132
  2C   1dxz       0.000018 -0.000015 -0.000007  0.000010  0.000017  0.000003
  2C   1dyz      -0.000119 -0.000008 -0.000017  0.000645  0.000076  0.000042
  2C   1dx2y2     0.000387 -0.000086  0.000059 -0.001090 -0.000162 -0.000022
  2C   1dxy       0.000092 -0.000054 -0.000044 -0.000265  0.000113 -0.000040
  2C   2dz2       0.001551 -0.000062  0.000062  0.000452  0.000125  0.000246
  2C   2dxz       0.000496 -0.000040  0.000110 -0.000250  0.000254 -0.000685
  2C   2dyz      -0.001139 -0.000148 -0.000015  0.001163 -0.000121 -0.000610
  2C   2dx2y2     0.005188  0.000988  0.000100 -0.008359  0.000742  0.002524
  2C   2dxy       0.003017 -0.000552  0.000710 -0.000224  0.001464 -0.004588
  2C   1f0        0.000144  0.000005  0.000016 -0.000429  0.000142  0.000027
  2C   1f+1      -0.000006  0.000136 -0.000016  0.000222  0.000406 -0.000706
  2C   1f-1       0.000363 -0.000009  0.000044 -0.001107  0.000295  0.000212
  2C   1f+2       0.000079 -0.000009  0.000009 -0.000531 -0.000056 -0.000044
  2C   1f-2      -0.000022  0.000010  0.000008 -0.000163 -0.000216  0.000117
  2C   1f+3      -0.000031  0.000225  0.000033 -0.000596 -0.000404 -0.000204
  2C   1f-3       0.000075 -0.000033  0.000007  0.001346  0.000682  0.000677
  3N   1s         0.000008 -0.448276  0.004880  0.000005  0.000057 -0.000002
  3N   2s        -0.000048 -0.626215  0.006822 -0.000052  0.000374  0.000025
  3N   3s         0.000756 -0.045624 -0.002946  0.000745 -0.006879 -0.000746
  3N   4s        -0.004418  0.063263  0.012180 -0.003455  0.032039  0.004439
  3N   5s         0.003674 -0.033591  0.001611 -0.001107  0.009523  0.003589
  3N   1pz       -0.000000 -0.000046 -0.000009  0.000012  0.000007  0.000003
  3N   1px        0.000104  0.000184  0.000302  0.000129 -0.000398 -0.000104
  3N   1py       -0.000033 -0.000270 -0.000111  0.000056  0.000135  0.000010
  3N   2pz        0.000038  0.000235  0.000364 -0.000225  0.000286 -0.000037
  3N   2px       -0.002474 -0.000348 -0.009019  0.000669 -0.003120  0.002240
  3N   2py        0.000765  0.001293  0.003925 -0.001591  0.002209 -0.000539
  3N   3pz        0.000023 -0.000839 -0.000372 -0.000143  0.000879 -0.000023
  3N   3px        0.001723  0.015400  0.006819  0.006453 -0.022137  0.000821
  3N   3py       -0.000223 -0.008005 -0.003579 -0.002132  0.009792 -0.000616
  3N   1dz2       0.000033  0.000902 -0.000084  0.000072 -0.000014 -0.000015
  3N   1dxz      -0.000005  0.000103 -0.000009 -0.000010  0.000007  0.000008
  3N   1dyz      -0.000011 -0.000042  0.000002 -0.000029  0.000014  0.000008
  3N   1dx2y2     0.000004 -0.001082  0.000118  0.000057 -0.000063 -0.000027
  3N   1dxy      -0.000027  0.001147 -0.000102 -0.000048  0.000047  0.000037
  3N   2dz2       0.000103 -0.005853 -0.003148 -0.000035 -0.004810 -0.000401
  3N   2dxz      -0.000009 -0.000640 -0.000453 -0.000044 -0.000534 -0.000080
  3N   2dyz       0.000051  0.000257  0.000217  0.000122  0.000142 -0.000015
  3N   2dx2y2    -0.000463  0.007160  0.003296 -0.000808  0.006284  0.000756
  3N   2dxy       0.000104 -0.007306 -0.004429 -0.000220 -0.006185 -0.000651
  3N   1f0       -0.000005  0.000006 -0.000096 -0.000006  0.000027  0.000008
  3N   1f+1       0.000015 -0.000075  0.000891 -0.000059 -0.000356 -0.000010
  3N   1f-1      -0.000015  0.000032 -0.000407 -0.000002  0.000149  0.000024
  3N   1f+2      -0.000003  0.000009  0.000078 -0.000041 -0.000047 -0.000009
  3N   1f-2       0.000003  0.000011 -0.000094  0.000020  0.000003  0.000000
  3N   1f+3       0.000031 -0.000021  0.000362  0.000066 -0.000277  0.000009
  3N   1f-3      -0.000013  0.000024 -0.001206  0.000210  0.000601  0.000081
  4N   1s        -0.000000 -0.004755 -0.448227  0.000000  0.000001  0.000001
  4N   2s         0.000001 -0.006701 -0.627073 -0.000000 -0.000015 -0.000011
  4N   3s         0.000087 -0.000156 -0.033756 -0.000283  0.001746  0.000065
  4N   4s        -0.000407 -0.019556  0.005953  0.002217 -0.019859 -0.000853
  4N   5s         0.000827  0.029114 -0.000040  0.006818 -0.026637  0.000315
  4N   1pz        0.000002  0.000010  0.000144  0.000005 -0.000021  0.000002
  4N   1px        0.000016 -0.000310 -0.003143 -0.000018  0.000285  0.000005
  4N   1py        0.000007  0.000121  0.001465  0.000036 -0.000170  0.000001
  4N   2pz       -0.000002  0.000524  0.000285 -0.000092  0.000609  0.000004
  4N   2px       -0.000346 -0.010400 -0.006487  0.001307 -0.011951 -0.000342
  4N   2py        0.000065  0.005133  0.002961 -0.000852  0.005918  0.000167
  4N   3pz       -0.000050 -0.000386 -0.000032 -0.000115  0.000392  0.000005
  4N   3px        0.000077  0.008700  0.000814  0.001982 -0.008149  0.000113
  4N   3py       -0.000324 -0.003988 -0.000346 -0.001046  0.003826  0.000090
  4N   1dz2      -0.000011 -0.000106  0.000592 -0.000025 -0.000001  0.000008
  4N   1dxz       0.000006 -0.000015  0.000080  0.000001 -0.000008 -0.000001
  4N   1dyz       0.000002  0.000006 -0.000032  0.000001  0.000000 -0.000003
  4N   1dx2y2     0.000010  0.000124 -0.000681  0.000035  0.000004  0.000004
  4N   1dxy       0.000037 -0.000149  0.000810 -0.000010 -0.000033 -0.000009
  4N   2dz2       0.000139  0.001134  0.001066 -0.000193  0.002033 -0.000026
  4N   2dxz      -0.000018  0.000174  0.000134 -0.000051  0.000310  0.000001
  4N   2dyz      -0.000009 -0.000082 -0.000056  0.000010 -0.000141  0.000013
  4N   2dx2y2    -0.000182 -0.001172 -0.001250  0.000195 -0.002168  0.000002
  4N   2dxy      -0.000033  0.001645  0.001401 -0.000435  0.002909  0.000066
  4N   1f0       -0.000001  0.000049 -0.000025 -0.000002 -0.000015  0.000003
  4N   1f+1       0.000037 -0.000461  0.000231  0.000009  0.000106 -0.000026
  4N   1f-1      -0.000010  0.000208 -0.000105 -0.000005 -0.000057  0.000009
  4N   1f+2      -0.000003 -0.000038  0.000022 -0.000012  0.000011  0.000000
  4N   1f-2      -0.000005  0.000050 -0.000024 -0.000009 -0.000015  0.000004
  4N   1f+3       0.000020 -0.000184  0.000095 -0.000026  0.000019 -0.000011
  4N   1f-3      -0.000009  0.000604 -0.000317  0.000060 -0.000164  0.000012
  5C   1s        -0.000017 -0.000003  0.000003  0.000517  0.000016 -0.466788
  5C   2s         0.000081  0.000017 -0.000015  0.000780  0.000050 -0.608463
  5C   3s        -0.000296 -0.000375  0.000221 -0.001283 -0.000509 -0.036481
  5C   4s        -0.000447  0.000068 -0.000598  0.010905  0.002461  0.016460
  5C   5s         0.003204  0.006062  0.001200 -0.014451 -0.002632 -0.034946
  5C   1pz       -0.000025  0.000001  0.000004 -0.000018  0.000022  0.000003
  5C   1px        0.000113  0.000188 -0.000030 -0.000058  0.000109  0.000561
  5C   1py       -0.000115  0.000009  0.000022 -0.000089  0.000064 -0.000123
  5C   2pz        0.000099  0.000004 -0.000043  0.000473 -0.000305  0.000056
  5C   2px        0.000316 -0.000747 -0.000020 -0.005185 -0.002188  0.000070
  5C   2py       -0.000194 -0.000144 -0.000144  0.003855 -0.000774 -0.000062
  5C   3pz        0.000165 -0.000246 -0.000023 -0.000419 -0.000277  0.000154
  5C   3px       -0.000388 -0.002499 -0.000505  0.003822 -0.001137  0.003808
  5C   3py        0.000419 -0.000724 -0.000112 -0.001979 -0.001239 -0.000510
  5C   1dz2       0.000075  0.000021 -0.000006  0.000031 -0.000055  0.000106
  5C   1dxz       0.000011 -0.000011  0.000000  0.000008  0.000008 -0.000011
  5C   1dyz      -0.000025  0.000011  0.000006 -0.000011  0.000024 -0.000030
  5C   1dx2y2     0.000043 -0.000101 -0.000021 -0.000005 -0.000025  0.000019
  5C   1dxy       0.000072 -0.000072  0.000003  0.000066  0.000039 -0.000002
  5C   2dz2      -0.000657 -0.000264  0.000060 -0.000519  0.000265 -0.000700
  5C   2dxz       0.000176  0.000078 -0.000005 -0.000163 -0.000057  0.000103
  5C   2dyz       0.000182 -0.000079 -0.000037  0.000158 -0.000236  0.000153
  5C   2dx2y2     0.000079  0.000736  0.000126 -0.000078  0.001065  0.000288
  5C   2dxy       0.000843  0.000329 -0.000021 -0.001227 -0.000252  0.000275
  5C   1f0        0.000028 -0.000012  0.000009 -0.000041  0.000003  0.000705
  5C   1f+1       0.000065  0.000036 -0.000009 -0.000442  0.000081 -0.000061
  5C   1f-1       0.000031 -0.000029  0.000018  0.000042 -0.000004  0.001259
  5C   1f+2      -0.000025 -0.000011  0.000005 -0.000099 -0.000017  0.000268
  5C   1f-2      -0.000006  0.000013 -0.000003  0.000066 -0.000001 -0.000249
  5C   1f+3       0.000070  0.000080 -0.000010 -0.000208  0.000149 -0.000460
  5C   1f-3       0.000146 -0.000030  0.000015  0.000626  0.000085  0.000914
  6O   1s        -0.435093  0.000002 -0.000000 -0.000065 -0.000003 -0.000004
  6O   2s        -0.639480 -0.000031  0.000004 -0.000348  0.000024  0.000053
  6O   3s        -0.036887  0.000292 -0.000116  0.003915 -0.000140 -0.000513
  6O   4s         0.032775 -0.000721  0.000697 -0.015206  0.000253  0.001742
  6O   5s        -0.012383  0.000782  0.000061  0.001040  0.000471 -0.001181
  6O   1pz        0.000326 -0.000007  0.000005 -0.000103  0.000009 -0.000003
  6O   1px       -0.000234 -0.000025 -0.000027  0.000147  0.000086 -0.000176
  6O   1py        0.002184 -0.000047  0.000035 -0.000707  0.000054  0.000045
  6O   2pz       -0.001084  0.000035 -0.000062  0.001281 -0.000001  0.000016
  6O   2px        0.000768  0.000189  0.000036 -0.001574 -0.000541  0.001141
  6O   2py       -0.007267  0.000211 -0.000416  0.008707  0.000029 -0.000237
  6O   3pz        0.000091 -0.000020 -0.000001  0.000045 -0.000092 -0.000104
  6O   3px        0.000079 -0.000050 -0.000328 -0.000404 -0.000316 -0.000392
  6O   3py        0.000534 -0.000133  0.000037  0.000397 -0.000447 -0.000284
  6O   1dz2       0.000100 -0.000002 -0.000012  0.000089  0.000000  0.000011
  6O   1dxz       0.000012  0.000000 -0.000002 -0.000015 -0.000006  0.000011
  6O   1dyz      -0.000069  0.000003  0.000001 -0.000007 -0.000008 -0.000002
  6O   1dx2y2     0.000284 -0.000014  0.000014 -0.000117  0.000044 -0.000000
  6O   1dxy       0.000065  0.000003 -0.000017 -0.000056 -0.000051  0.000069
  6O   2dz2      -0.000719  0.000039  0.000007  0.001165  0.000062 -0.000047
  6O   2dxz      -0.000057 -0.000006  0.000011  0.000190  0.000047 -0.000058
  6O   2dyz       0.000425 -0.000016  0.000022 -0.000773 -0.000015 -0.000020
  6O   2dx2y2    -0.001559  0.000033 -0.000139  0.003145  0.000046  0.000160
  6O   2dxy      -0.000347 -0.000027  0.000104  0.001084  0.000336 -0.000406
  6O   1f0        0.000046 -0.000003  0.000001 -0.000127 -0.000005  0.000007
  6O   1f+1      -0.000017  0.000017  0.000003  0.000036 -0.000025  0.000029
  6O   1f-1       0.000118 -0.000011  0.000002 -0.000321 -0.000007  0.000011
  6O   1f+2       0.000058  0.000001  0.000005 -0.000189 -0.000020 -0.000011
  6O   1f-2       0.000015 -0.000002 -0.000003 -0.000066 -0.000005 -0.000018
  6O   1f+3       0.000064  0.000002 -0.000014 -0.000278 -0.000043 -0.000044
  6O   1f-3      -0.000152 -0.000022 -0.000022  0.000602  0.000106  0.000075
  7H   1s        -0.000014  0.000065  0.000014  0.000001 -0.000066  0.000442
  7H   2s         0.000956 -0.000303 -0.000045 -0.000414 -0.000450  0.002943
  7H   3s        -0.000131 -0.000830 -0.000106 -0.000044  0.000716  0.005513
  7H   1pz        0.000100 -0.000009  0.000019  0.000067 -0.000025  0.001905
  7H   1px       -0.000084  0.000069 -0.000010  0.000296 -0.000028 -0.000355
  7H   1py        0.000171  0.000002 -0.000005 -0.000123 -0.000118  0.000951
  8H   1s        -0.000089  0.000005  0.000026 -0.000041  0.000054  0.000428
  8H   2s        -0.000712 -0.000304  0.000124 -0.000370  0.001108  0.001805
  8H   3s        -0.000677  0.000524 -0.000015  0.001461  0.001107  0.004189
  8H   1pz        0.000021  0.000022 -0.000006 -0.000035 -0.000038 -0.000342
  8H   1px        0.000144 -0.000049 -0.000043  0.000331 -0.000195 -0.001369
  8H   1py        0.000025  0.000085 -0.000016 -0.000228 -0.000107 -0.001438
  9H   1s        -0.000030  0.000054  0.000016  0.000019 -0.000048  0.000436
  9H   2s         0.000799 -0.000379 -0.000018 -0.000369 -0.000268  0.002846
  9H   3s        -0.000189 -0.000759 -0.000136  0.000199  0.000711  0.005425
  9H   1pz       -0.000004  0.000025 -0.000024 -0.000089 -0.000061 -0.001381
  9H   1px       -0.000057  0.000076 -0.000011  0.000296 -0.000046 -0.000206
  9H   1py        0.000190 -0.000017  0.000007 -0.000088 -0.000099  0.001629
                      6         7         8         9        10        11   
                  -1.13643  -1.04179  -0.86892  -0.75027  -0.62287  -0.54713
                   2.00000   2.00000   2.00000   2.00000   2.00000   2.00000
                  --------  --------  --------  --------  --------  --------
  0C   1s        -0.017960 -0.011410  0.073627 -0.006275  0.034946 -0.028031
  0C   2s        -0.037423 -0.023550  0.155073 -0.013240  0.074608 -0.059707
  0C   3s         0.054457  0.036615 -0.243771  0.019157 -0.118122  0.091688
  0C   4s         0.033644  0.022131 -0.221680  0.030719 -0.142640  0.143946
  0C   5s        -0.005344  0.010132 -0.056358  0.008967 -0.052512  0.061257
  0C   1pz        0.001554  0.003209 -0.004265  0.002144 -0.010752 -0.035218
  0C   1px       -0.037047  0.008539  0.100586  0.096133 -0.205665  0.017792
  0C   1py        0.017318  0.019780 -0.048523 -0.003299 -0.032281 -0.236129
  0C   2pz        0.000940  0.000970 -0.003062  0.001910 -0.006990 -0.022290
  0C   2px       -0.013430 -0.005172  0.028766  0.061550 -0.114133  0.009103
  0C   2py        0.008560  0.007456 -0.026686  0.001516 -0.024962 -0.148766
  0C   3pz        0.000223 -0.000042 -0.001492 -0.000021 -0.001815 -0.007181
  0C   3px        0.006338 -0.001153  0.006000  0.010661 -0.022184  0.009270
  0C   3py        0.000235  0.000009 -0.011130 -0.002172 -0.007070 -0.049596
  0C   1dz2      -0.003731 -0.001347  0.011613  0.000276  0.001252 -0.000744
  0C   1dxz      -0.000233  0.000155  0.000215  0.000837 -0.001733  0.000751
  0C   1dyz       0.000337  0.000490 -0.001556  0.000321 -0.002027  0.001007
  0C   1dx2y2     0.003607 -0.000709 -0.008666 -0.001410  0.008430 -0.003840
  0C   1dxy      -0.003474  0.000700  0.007018  0.006056 -0.012817  0.005486
  0C   2dz2      -0.003781 -0.000661  0.008729 -0.000428  0.001738 -0.003918
  0C   2dxz      -0.000132 -0.000253 -0.001535  0.000996 -0.000760  0.002093
  0C   2dyz       0.000576  0.000250 -0.001619 -0.000188 -0.001903  0.000082
  0C   2dx2y2     0.002455 -0.000863 -0.005737  0.002995  0.008234  0.008540
  0C   2dxy      -0.002340 -0.001840 -0.006024  0.006030 -0.005875  0.010784
  0C   1f0       -0.000159 -0.000274  0.000293 -0.000050  0.000449  0.001269
  0C   1f+1       0.001423 -0.000061 -0.002179 -0.002250  0.003333 -0.000155
  0C   1f-1      -0.000703 -0.000678  0.001261  0.000276  0.000536  0.003249
  0C   1f+2       0.000187 -0.000283 -0.000735  0.000290 -0.000209  0.000857
  0C   1f-2      -0.000013  0.000135 -0.000284  0.000253 -0.000942  0.000265
  0C   1f+3       0.001135  0.000523 -0.002737 -0.001521 -0.000288  0.001976
  0C   1f-3      -0.002471  0.000489  0.006596 -0.000348  0.001089 -0.000464
  1H   1s         0.005144  0.002966 -0.038056  0.010474 -0.033962  0.134722
  1H   2s         0.003469  0.003138 -0.038325  0.013948 -0.039734  0.172400
  1H   3s         0.001150 -0.001984 -0.002069 -0.001689 -0.005213  0.030577
  1H   1pz        0.000097  0.000159 -0.000967  0.000423 -0.000983  0.002637
  1H   1px       -0.000925 -0.000145  0.002304  0.003015 -0.005043 -0.002529
  1H   1py        0.000810  0.001078 -0.006797  0.002211 -0.005567  0.017730
  2C   1s        -0.005646 -0.057780  0.011431 -0.042782  0.045574  0.012863
  2C   2s        -0.011697 -0.120891  0.023989 -0.090999  0.097706  0.027733
  2C   3s         0.018420  0.190192 -0.038558  0.149913 -0.159900 -0.045239
  2C   4s         0.011261  0.155188 -0.024596  0.140577 -0.195241 -0.067290
  2C   5s         0.006084  0.013403  0.008234  0.011034 -0.038248 -0.022279
  2C   1pz        0.000447  0.018740  0.011172 -0.015555  0.020073  0.001138
  2C   1px       -0.007884 -0.022198  0.036403  0.076892  0.132942  0.054883
  2C   1py        0.004393  0.127531  0.066644 -0.113118  0.110275 -0.004000
  2C   2pz       -0.000084  0.004668  0.004137 -0.008235  0.013811  0.001761
  2C   2px       -0.001947 -0.007334  0.017121  0.044828  0.081429  0.045023
  2C   2py       -0.000112  0.032775  0.023939 -0.060329  0.077662  0.002098
  2C   3pz       -0.000046  0.000436 -0.000069 -0.001021  0.003064  0.002742
  2C   3px        0.006019  0.000339 -0.009294  0.000327 -0.002712 -0.008421
  2C   3py       -0.001121  0.003028  0.001204 -0.006216  0.020282  0.018918
  2C   1dz2      -0.000911 -0.010644  0.000728 -0.003673  0.004004  0.001524
  2C   1dxz       0.000036 -0.000524 -0.000717  0.000212 -0.001364 -0.000119
  2C   1dyz       0.000273  0.005035  0.000618 -0.000045 -0.001189  0.000455
  2C   1dx2y2    -0.000173 -0.014704 -0.005908  0.006724 -0.000646 -0.005445
  2C   1dxy      -0.000028 -0.004199 -0.003449 -0.000558 -0.007507  0.000622
  2C   2dz2      -0.000775 -0.010659  0.000160 -0.002384  0.006347  0.003182
  2C   2dxz       0.000045  0.000222 -0.000344 -0.000409 -0.001707 -0.000720
  2C   2dyz      -0.000017  0.002932  0.000726  0.000036 -0.002345  0.000713
  2C   2dx2y2     0.001412 -0.000343 -0.005170  0.003322  0.002485 -0.010747
  2C   2dxy      -0.000121 -0.001420 -0.001166 -0.003682 -0.009680 -0.001841
  2C   1f0        0.000005 -0.000937 -0.000505  0.000662 -0.000787  0.000017
  2C   1f+1       0.000176  0.000442 -0.000752 -0.000984 -0.001067 -0.001127
  2C   1f-1      -0.000011 -0.002405 -0.001142  0.001804 -0.001815  0.000238
  2C   1f+2      -0.000141 -0.002081 -0.000202  0.000148 -0.000005  0.000537
  2C   1f-2      -0.000020 -0.000921 -0.000028 -0.000095  0.001047  0.000121
  2C   1f+3       0.000225 -0.003495 -0.001422 -0.001050  0.003174 -0.001075
  2C   1f-3       0.000626  0.008107 -0.000062  0.002010 -0.002760 -0.002055
  3N   1s        -0.084673  0.003743  0.036307  0.014152 -0.029504  0.014888
  3N   2s        -0.190107  0.008440  0.082052  0.032309 -0.067663  0.034320
  3N   3s         0.293407 -0.013580 -0.124199 -0.053684  0.113235 -0.058731
  3N   4s         0.301060 -0.013634 -0.181718 -0.055788  0.134389 -0.073197
  3N   5s         0.026451 -0.001176 -0.049390 -0.023821  0.069620 -0.040328
  3N   1pz        0.005641 -0.000453  0.009149  0.003227 -0.012269 -0.034222
  3N   1px       -0.112930  0.034208 -0.250897 -0.065832  0.076398 -0.129449
  3N   1py        0.055169 -0.008998  0.105835  0.033498 -0.094482 -0.203098
  3N   2pz        0.003219 -0.000069  0.006111  0.002492 -0.010069 -0.027965
  3N   2px       -0.064319  0.021441 -0.175859 -0.047075  0.059764 -0.112674
  3N   2py        0.031507 -0.004256  0.072382  0.025087 -0.076673 -0.164940
  3N   3pz       -0.000948  0.000276  0.000277  0.000222 -0.002977 -0.011298
  3N   3px        0.021112 -0.007466 -0.004122 -0.007643  0.013566 -0.037460
  3N   3py       -0.009969  0.003170  0.002644  0.002920 -0.022374 -0.067838
  3N   1dz2      -0.008426  0.000465  0.000249  0.000169 -0.000142  0.000409
  3N   1dxz      -0.000981  0.000151 -0.000148  0.000025 -0.000133  0.000131
  3N   1dyz       0.000555 -0.000043  0.000042 -0.000008 -0.000002 -0.000294
  3N   1dx2y2     0.009214 -0.000331 -0.000671 -0.000146 -0.000018  0.001226
  3N   1dxy      -0.010537  0.001146 -0.000486  0.000331 -0.001017  0.000910
  3N   2dz2      -0.013243  0.000731  0.003763 -0.000595  0.001594 -0.001745
  3N   2dxz      -0.001407  0.000322  0.000105 -0.000109 -0.000116 -0.000382
  3N   2dyz       0.000963 -0.000052  0.000126 -0.000108 -0.000016  0.000087
  3N   2dx2y2     0.014017 -0.000523 -0.006526  0.001593 -0.002701  0.001576
  3N   2dxy      -0.015618  0.002376  0.003452 -0.001086  0.000290 -0.003291
  3N   1f0       -0.000301  0.000012 -0.000373 -0.000087  0.000373  0.000878
  3N   1f+1       0.002475 -0.000759  0.004176  0.000894 -0.000867  0.001459
  3N   1f-1      -0.001192  0.000171 -0.001757 -0.000401  0.001146  0.002059
  3N   1f+2       0.000169 -0.000015  0.000228  0.000105 -0.000260 -0.000182
  3N   1f-2      -0.000338  0.000060 -0.000391 -0.000095  0.000347  0.000989
  3N   1f+3       0.000664 -0.000524  0.002010  0.000309  0.001504  0.007977
  3N   1f-3      -0.003090  0.000576 -0.004882 -0.001359  0.002821  0.001998
  4N   1s        -0.068538  0.009138 -0.041615 -0.010941  0.020969 -0.014121
  4N   2s        -0.153379  0.020492 -0.093925 -0.024791  0.047712 -0.032246
  4N   3s         0.239036 -0.032249  0.152630  0.041149 -0.079106  0.053105
  4N   4s         0.200021 -0.028754  0.149180  0.036270 -0.083006  0.060118
  4N   5s         0.076878 -0.015733  0.069807  0.018510 -0.046916  0.050941
  4N   1pz       -0.006563  0.001013 -0.003234 -0.000439 -0.003766 -0.019405
  4N   1px        0.145831 -0.017589  0.062389  0.010508 -0.003048 -0.086459
  4N   1py       -0.067648  0.009561 -0.031027 -0.004340 -0.024532 -0.113111
  4N   2pz       -0.003054  0.000529 -0.001656  0.000067 -0.003419 -0.015310
  4N   2px        0.068767 -0.007806  0.027478 -0.000343  0.008122 -0.072457
  4N   2py       -0.031697  0.004761 -0.014961  0.000714 -0.023972 -0.088605
  4N   3pz       -0.000907  0.000319 -0.000660 -0.000065 -0.000925 -0.005452
  4N   3px        0.020140 -0.003355  0.012313  0.001175  0.002210 -0.023090
  4N   3py       -0.009307  0.002598 -0.006273 -0.000587 -0.006403 -0.032092
  4N   1dz2      -0.008225  0.000981 -0.003295 -0.000574  0.000137  0.000695
  4N   1dxz      -0.001008  0.000131 -0.000420 -0.000061 -0.000214 -0.001015
  4N   1dyz       0.000565 -0.000077  0.000267  0.000041  0.000146  0.000929
  4N   1dx2y2     0.008840 -0.000984  0.003309  0.000635 -0.001390 -0.008051
  4N   1dxy      -0.010499  0.001310 -0.004211 -0.000645 -0.001164 -0.005138
  4N   2dz2      -0.007103  0.000632 -0.001516  0.000620 -0.001835  0.002046
  4N   2dxz      -0.000736  0.000143 -0.000266  0.000108 -0.000662 -0.001677
  4N   2dyz       0.000602 -0.000096  0.000223 -0.000021  0.000340  0.001589
  4N   2dx2y2     0.007044 -0.000278  0.000881 -0.000748  0.000178 -0.015173
  4N   2dxy      -0.008121  0.001157 -0.002212  0.001051 -0.004878 -0.007996
  4N   1f0        0.000301 -0.000038  0.000095  0.000017  0.000059  0.000402
  4N   1f+1      -0.002701  0.000282 -0.000765 -0.000162  0.000143  0.000703
  4N   1f-1       0.001248 -0.000148  0.000381  0.000070  0.000129  0.000931
  4N   1f+2      -0.000152  0.000020 -0.000066 -0.000001 -0.000006 -0.000028
  4N   1f-2       0.000342 -0.000036  0.000096  0.000020  0.000044  0.000343
  4N   1f+3      -0.000881  0.000077 -0.000217 -0.000067  0.000461  0.003068
  4N   1f-3       0.003189 -0.000376  0.001054  0.000139  0.000092  0.000738
  5C   1s        -0.000573 -0.008649  0.005153 -0.081065 -0.045380  0.005768
  5C   2s        -0.001176 -0.017839  0.010826 -0.171451 -0.096505  0.012343
  5C   3s         0.002051  0.028847 -0.015751  0.265552  0.151340 -0.020854
  5C   4s         0.000297  0.009987 -0.019881  0.293231  0.183497 -0.021258
  5C   5s        -0.012770 -0.002718  0.004981  0.059573  0.076845  0.017430
  5C   1pz        0.000052  0.001328  0.000713 -0.000542  0.001669 -0.000282
  5C   1px       -0.001173 -0.013220  0.008316 -0.039863  0.076436 -0.015295
  5C   1py        0.000505  0.010942  0.003207  0.006011  0.002155 -0.002972
  5C   2pz       -0.000159  0.000419  0.000729 -0.000449  0.001728  0.000251
  5C   2px        0.000634  0.001715  0.008639 -0.037159  0.043497 -0.011336
  5C   2py       -0.000787  0.002336  0.002799  0.006360  0.006195  0.000409
  5C   3pz        0.000242  0.000081  0.000358  0.000189  0.000974 -0.000607
  5C   3px        0.004163  0.000583 -0.000155 -0.005048  0.007648 -0.013308
  5C   3py       -0.000008 -0.000157  0.002331  0.001052  0.005218 -0.001045
  5C   1dz2      -0.000071 -0.000627  0.000335 -0.001919  0.001742 -0.000352
  5C   1dxz       0.000000 -0.000127 -0.000042 -0.000131  0.000145 -0.000074
  5C   1dyz       0.000006  0.000176  0.000072  0.000043  0.000418 -0.000051
  5C   1dx2y2     0.000069 -0.000153 -0.000950  0.002588 -0.004670  0.000454
  5C   1dxy      -0.000019 -0.001070 -0.000064 -0.001855  0.001714 -0.000522
  5C   2dz2       0.000420  0.000946  0.000504 -0.003847 -0.000439 -0.002422
  5C   2dxz      -0.000034 -0.000082 -0.000115 -0.000333 -0.000632  0.000477
[...]
  5C   1dx2y2    -0.002080  0.007142 -0.006719 -0.002582 -0.010760 -0.004264
  5C   1dxy       0.004370 -0.010889  0.004624  0.000502 -0.010285 -0.009300
  5C   2dz2      -0.081937 -0.054382  0.072225  0.008543 -0.031006  0.056747
  5C   2dxz       0.008256 -0.005668  0.020581  0.000159  0.007647 -0.017734
  5C   2dyz       0.017187  0.029744 -0.004323 -0.003103 -0.009726 -0.017267
  5C   2dx2y2     0.037284 -0.096719 -0.091018  0.004757  0.086352 -0.001159
  5C   2dxy       0.011250 -0.059909  0.161611  0.003604  0.030867 -0.090126
  5C   1f0        0.063734 -0.003709 -0.004106  0.000825 -0.001935 -0.003507
  5C   1f+1       0.010465 -0.032237  0.043624 -0.001516  0.007456 -0.007090
  5C   1f-1       0.109607  0.000308 -0.019257  0.001621 -0.004976 -0.004236
  5C   1f+2       0.025396 -0.000506  0.008975  0.000523 -0.001609  0.002209
  5C   1f-2      -0.025406  0.003443 -0.004316 -0.000333  0.001060  0.000673
  5C   1f+3      -0.037599 -0.031572  0.018175 -0.002045  0.010601 -0.008290
  5C   1f-3       0.068212  0.006490 -0.084941  0.001091 -0.005357 -0.014828
  6O   1s         0.007508 -0.011899  0.018287 -0.000183 -0.008069  1.396212
  6O   2s         0.000338 -0.001860  0.005538  0.000326  0.006360 -1.731082
  6O   3s        -0.092857  0.211861 -0.488740 -0.010230  0.024102  1.879982
  6O   4s         0.297687 -0.709926  1.817288  0.064205 -0.059964 -2.866971
  6O   5s        -0.076580 -0.099570  0.317568  0.011197  0.031385  1.097707
  6O   1pz        0.001342 -0.008032  0.015813  0.000335 -0.001293 -0.014121
  6O   1px       -0.025954  0.001464 -0.022878 -0.002970 -0.004891  0.009914
  6O   1py        0.017526 -0.054539  0.107445  0.002750 -0.008045 -0.094929
  6O   2pz       -0.010512  0.061022 -0.169730 -0.005840  0.005116  0.102808
  6O   2px        0.135835 -0.040789  0.204116  0.006297  0.029798 -0.075089
  6O   2py       -0.108615  0.414498 -1.149836 -0.039530  0.030431  0.690469
  6O   3pz       -0.009853  0.015875 -0.024271 -0.000388  0.000140 -0.004793
  6O   3px       -0.028155  0.016243  0.072552 -0.022863 -0.007023 -0.011186
  6O   3py       -0.032948  0.093729 -0.180733  0.000535  0.000677 -0.025424
  6O   1dz2       0.001913  0.004897 -0.018712 -0.001647 -0.001484 -0.004214
  6O   1dxz       0.002146 -0.000245  0.002546 -0.000119  0.000420 -0.000791
  6O   1dyz      -0.000551  0.001392  0.003455  0.000259  0.000808  0.003937
  6O   1dx2y2     0.001860 -0.016771  0.011986  0.001031 -0.002215 -0.018994
  6O   1dxy       0.013620  0.003330  0.009825 -0.001549  0.002439 -0.003791
  6O   2dz2      -0.022836  0.061652 -0.170472  0.000144  0.007467  0.078196
  6O   2dxz      -0.008061  0.005602 -0.025445  0.000605 -0.002204  0.006337
  6O   2dyz       0.007348 -0.040219  0.108643  0.002231 -0.002756 -0.045988
  6O   2dx2y2    -0.016224  0.157419 -0.430491 -0.013551  0.003290  0.168367
  6O   2dxy      -0.055807  0.027901 -0.149091  0.006619 -0.011652  0.038969
  6O   1f0        0.004874 -0.013758  0.032275  0.000225 -0.000252 -0.008145
  6O   1f+1       0.004447  0.009573 -0.008888  0.000218  0.001375  0.002976
  6O   1f-1       0.011203 -0.036105  0.081854  0.000435 -0.000955 -0.020877
  6O   1f+2       0.002813 -0.015261  0.045513  0.000785  0.000481 -0.010221
  6O   1f-2      -0.002229 -0.005064  0.014640 -0.000108  0.000300 -0.002784
  6O   1f+3      -0.003916 -0.017335  0.062090 -0.000877  0.001989 -0.011683
  6O   1f-3      -0.000011  0.032383 -0.137361 -0.003323 -0.004423  0.026912
  7H   1s         0.042706  0.010641 -0.004642  0.001501  0.004505  0.001779
  7H   2s         0.351656  0.012064  0.010710 -0.002574 -0.027867 -0.098574
  7H   3s         0.336852 -0.079686 -0.073570 -0.015128 -0.051522  0.009583
  7H   1pz        0.199268 -0.000725 -0.032511  0.001837 -0.002718 -0.011422
  7H   1px       -0.040860  0.017300 -0.033008 -0.001810  0.008138  0.011004
  7H   1py        0.101280  0.001842  0.008885 -0.000037 -0.000717 -0.018461
  8H   1s         0.040200 -0.007595 -0.008685  0.002366  0.000024  0.009174
  8H   2s         0.243839 -0.125453 -0.063367  0.007719 -0.018017  0.065613
  8H   3s         0.223720 -0.032872 -0.179292 -0.001491  0.044281  0.067658
  8H   1pz       -0.036346  0.003593  0.011590 -0.000328  0.001970 -0.001889
  8H   1px       -0.148092  0.040522 -0.005287 -0.003687 -0.007537 -0.013740
  8H   1py       -0.151994  0.007553  0.054795 -0.000476  0.007506 -0.001814
  9H   1s         0.041808  0.009465 -0.007849  0.001697  0.003020  0.003419
  9H   2s         0.342997  0.000067  0.001109 -0.000964 -0.037037 -0.083827
  9H   3s         0.329177 -0.070362 -0.090123 -0.016663 -0.046822  0.016263
  9H   1pz       -0.144439  0.006260  0.032291 -0.002059  0.004186  0.001564
  9H   1px       -0.025275  0.017806 -0.034913 -0.001894  0.009221  0.008212
  9H   1py        0.172576  0.000058 -0.005031  0.000982 -0.003628 -0.020926



                    ********************************
                    * MULLIKEN POPULATION ANALYSIS *
                    ********************************

-----------------------
MULLIKEN ATOMIC CHARGES
-----------------------
   0 C :   -0.200960
   1 H :    0.202202
   2 C :    0.249585
   3 N :    0.224389
   4 N :   -0.125925
   5 C :   -0.360635
   6 O :   -0.410736
   7 H :    0.144817
   8 H :    0.133380
   9 H :    0.143882
Sum of atomic charges:   -0.0000000

--------------------------------
MULLIKEN REDUCED ORBITAL CHARGES
--------------------------------
  0 C s       :     3.197663  s :     3.197663
      pz      :     1.245430  p :     2.918141
      px      :     0.708051
      py      :     0.964661
      dz2     :     0.007487  d :     0.075964
      dxz     :     0.015948
      dyz     :     0.005651
      dx2y2   :     0.027909
      dxy     :     0.018969
      f0      :     0.001666  f :     0.009191
      f+1     :     0.001228
      f-1     :     0.000901
      f+2     :     0.000551
      f-2     :     0.000711
      f+3     :     0.001932
      f-3     :     0.002201
  1 H s       :     0.774198  s :     0.774198
      pz      :     0.006613  p :     0.023601
      px      :     0.002570
      py      :     0.014418
  2 C s       :     3.127329  s :     3.127329
      pz      :     0.731409  p :     2.404879
      px      :     0.907205
      py      :     0.766265
      dz2     :     0.010352  d :     0.200155
      dxz     :     0.024288
      dyz     :     0.047650
      dx2y2   :     0.040223
      dxy     :     0.077642
      f0      :     0.001997  f :     0.018052
      f+1     :     0.000761
      f-1     :     0.001704
      f+2     :     0.002300
      f-2     :     0.001672
      f+3     :     0.006166
      f-3     :     0.003452
  3 N s       :     3.299339  s :     3.299339
      pz      :     1.189030  p :     3.356228
      px      :     1.047404
      py      :     1.119793
      dz2     :     0.004264  d :     0.110767
      dxz     :     0.052885
      dyz     :     0.009818
      dx2y2   :     0.022582
      dxy     :     0.021219
      f0      :     0.001364  f :     0.009277
      f+1     :     0.000859
      f-1     :     0.000368
      f+2     :     0.000937
      f-2     :     0.001134
      f+3     :     0.003026
      f-3     :     0.001589
  4 N s       :     3.897213  s :     3.897213
      pz      :     1.232623  p :     3.158321
      px      :     1.040541
      py      :     0.885157
      dz2     :     0.004910  d :     0.065479
      dxz     :     0.017826
      dyz     :     0.004008
      dx2y2   :     0.020425
      dxy     :     0.018310
      f0      :     0.000774  f :     0.004913
      f+1     :     0.000431
      f-1     :     0.000231
      f+2     :     0.000441
      f-2     :     0.000617
      f+3     :     0.001767
      f-3     :     0.000652
  5 C s       :     3.271141  s :     3.271141
      pz      :     1.058594  p :     3.046454
      px      :     0.936545
      py      :     1.051315
      dz2     :     0.004369  d :     0.039570
      dxz     :     0.007357
      dyz     :     0.007563
      dx2y2   :     0.009858
      dxy     :     0.010422
      f0      :     0.000449  f :     0.003470
      f+1     :     0.000093
      f-1     :     0.000914
      f+2     :     0.000137
      f-2     :     0.000213
      f+3     :     0.000878
      f-3     :     0.000785
  6 O s       :     3.804170  s :     3.804170
      pz      :     1.415892  p :     4.576214
      px      :     1.805641
      py      :     1.354681
      dz2     :     0.002780  d :     0.028631
      dxz     :     0.000391
      dyz     :     0.009828
      dx2y2   :     0.007928
      dxy     :     0.007704
      f0      :     0.000151  f :     0.001721
      f+1     :     0.000021
      f-1     :     0.000202
      f+2     :     0.000385
      f-2     :     0.000058
      f+3     :     0.000482
      f-3     :     0.000421
  7 H s       :     0.833879  s :     0.833879
      pz      :     0.011074  p :     0.021304
      px      :     0.004447
      py      :     0.005783
  8 H s       :     0.845223  s :     0.845223
      pz      :     0.004460  p :     0.021397
      px      :     0.008848
      py      :     0.008088
  9 H s       :     0.834874  s :     0.834874
      pz      :     0.008076  p :     0.021244
      px      :     0.004243
      py      :     0.008924


                     *******************************
                     * LOEWDIN POPULATION ANALYSIS *
                     *******************************

----------------------
LOEWDIN ATOMIC CHARGES
----------------------
   0 C :   -0.261745
   1 H :    0.166748
   2 C :   -0.386498
   3 N :    0.227024
   4 N :    0.049751
   5 C :   -0.254488
   6 O :    0.039381
   7 H :    0.143956
   8 H :    0.133358
   9 H :    0.142512

-------------------------------
LOEWDIN REDUCED ORBITAL CHARGES
-------------------------------
  0 C s       :     2.792495  s :     2.792495
      pz      :     1.121984  p :     3.034717
      px      :     0.900597
      py      :     1.012136
      dz2     :     0.033120  d :     0.377061
      dxz     :     0.060150
      dyz     :     0.019419
      dx2y2   :     0.150579
      dxy     :     0.113793
      f0      :     0.005491  f :     0.057472
      f+1     :     0.007521
      f-1     :     0.003809
      f+2     :     0.004321
      f-2     :     0.006442
      f+3     :     0.016043
      f-3     :     0.013844
  1 H s       :     0.767436  s :     0.767436
      pz      :     0.019494  p :     0.065816
      px      :     0.007717
      py      :     0.038605
  2 C s       :     2.765106  s :     2.765106
      pz      :     0.718092  p :     2.713835
      px      :     1.009825
      py      :     0.985918
      dz2     :     0.054374  d :     0.797727
      dxz     :     0.079345
      dyz     :     0.150669
      dx2y2   :     0.203083
      dxy     :     0.310255
      f0      :     0.007011  f :     0.109830
      f+1     :     0.004243
      f-1     :     0.010498
      f+2     :     0.016559
      f-2     :     0.010224
      f+3     :     0.040078
      f-3     :     0.021216
  3 N s       :     2.952104  s :     2.952104
      pz      :     1.066640  p :     3.398600
      px      :     1.252424
      py      :     1.079536
      dz2     :     0.025361  d :     0.396216
      dxz     :     0.162950
      dyz     :     0.031311
      dx2y2   :     0.087929
      dxy     :     0.088665
      f0      :     0.002452  f :     0.026056
      f+1     :     0.004360
      f-1     :     0.001209
      f+2     :     0.001635
      f-2     :     0.002360
      f+3     :     0.005747
      f-3     :     0.008293
  4 N s       :     3.368380  s :     3.368380
      pz      :     1.179715  p :     3.381335
      px      :     1.264033
      py      :     0.937587
      dz2     :     0.017835  d :     0.171506
      dxz     :     0.043252
      dyz     :     0.009523
      dx2y2   :     0.049625
      dxy     :     0.051270
      f0      :     0.003655  f :     0.029028
      f+1     :     0.003424
      f-1     :     0.001214
      f+2     :     0.002506
      f-2     :     0.003504
      f+3     :     0.008198
      f-3     :     0.006528
  5 C s       :     2.841758  s :     2.841758
      pz      :     1.071917  p :     3.169795
      px      :     1.027292
      py      :     1.070586
      dz2     :     0.036659  d :     0.219506
      dxz     :     0.026379
      dyz     :     0.044662
      dx2y2   :     0.046695
      dxy     :     0.065110
      f0      :     0.002205  f :     0.023428
      f+1     :     0.003051
      f-1     :     0.002899
      f+2     :     0.003519
      f-2     :     0.001870
      f+3     :     0.005380
      f-3     :     0.004505
  6 O s       :     3.404635  s :     3.404635
      pz      :     1.336069  p :     4.483727
      px      :     1.658157
      py      :     1.489501
      dz2     :     0.007358  d :     0.066419
      dxz     :     0.000671
      dyz     :     0.013710
      dx2y2   :     0.022560
      dxy     :     0.022120
      f0      :     0.000417  f :     0.005839
      f+1     :     0.000117
      f-1     :     0.000850
      f+2     :     0.000795
      f-2     :     0.000153
      f+3     :     0.001833
      f-3     :     0.001674
  7 H s       :     0.795521  s :     0.795521
      pz      :     0.031535  p :     0.060523
      px      :     0.012355
      py      :     0.016633
  8 H s       :     0.806555  s :     0.806555
      pz      :     0.013242  p :     0.060087
      px      :     0.022798
      py      :     0.024047
  9 H s       :     0.796954  s :     0.796954
      pz      :     0.023446  p :     0.060534
      px      :     0.011939
      py      :     0.025148


                      *****************************
                      * MAYER POPULATION ANALYSIS *
                      *****************************

  NA   - Mulliken gross atomic population
  ZA   - Total nuclear charge
  QA   - Mulliken gross atomic charge
  VA   - Mayer's total valence
  BVA  - Mayer's bonded valence
  FA   - Mayer's free valence

  ATOM       NA         ZA         QA         VA         BVA        FA
  0 C      6.2010     6.0000    -0.2010     3.5858     3.5858    -0.0000
  1 H      0.7978     1.0000     0.2022     0.9598     0.9598    -0.0000
  2 C      5.7504     6.0000     0.2496     4.1338     4.1338     0.0000
  3 N      6.7756     7.0000     0.2244     3.6555     3.6555    -0.0000
  4 N      7.1259     7.0000    -0.1259     2.6782     2.6782    -0.0000
  5 C      6.3606     6.0000    -0.3606     3.7412     3.7412    -0.0000
  6 O      8.4107     8.0000    -0.4107     2.0697     2.0697     0.0000
  7 H      0.8552     1.0000     0.1448     0.9671     0.9671    -0.0000
  8 H      0.8666     1.0000     0.1334     0.9911     0.9911    -0.0000
  9 H      0.8561     1.0000     0.1439     0.9671     0.9671    -0.0000

  Mayer bond orders larger than 0.100000
B(  0-C ,  1-H ) :   0.9167 B(  0-C ,  2-C ) :   1.1078 B(  0-C ,  3-N ) :   1.3417 
B(  0-C ,  4-N ) :   0.2505 B(  2-C ,  5-C ) :   0.9529 B(  2-C ,  6-O ) :   1.9863 
B(  3-N ,  4-N ) :   2.2669 B(  5-C ,  7-H ) :   0.9397 B(  5-C ,  8-H ) :   0.9715 
B(  5-C ,  9-H ) :   0.9428 

-------
TIMINGS
-------

Total SCF time: 0 days 0 hours 1 min 1 sec 

Total time                  ....      61.497 sec
Sum of individual times     ....      61.220 sec  ( 99.5%)

Fock matrix formation       ....      59.879 sec  ( 97.4%)
  Split-RI-J                ....       3.181 sec  (  5.3% of F)
  Chain of spheres X        ....      43.217 sec  ( 72.2% of F)
  XC integration            ....       8.309 sec  ( 13.9% of F)
    Basis function eval.    ....       2.570 sec  ( 30.9% of XC)
    Density eval.           ....       2.092 sec  ( 25.2% of XC)
    XC-Functional eval.     ....       0.326 sec  (  3.9% of XC)
    XC-Potential eval.      ....       2.837 sec  ( 34.1% of XC)
Diagonalization             ....       0.044 sec  (  0.1%)
Density matrix formation    ....       0.006 sec  (  0.0%)
Population analysis         ....       0.015 sec  (  0.0%)
Initial guess               ....       0.257 sec  (  0.4%)
Orbital Transformation      ....       0.000 sec  (  0.0%)
Orbital Orthonormalization  ....       0.000 sec  (  0.0%)
DIIS solution               ....       0.012 sec  (  0.0%)
SOSCF solution              ....       0.027 sec  (  0.0%)
Grid generation             ....       0.979 sec  (  1.6%)

Maximum memory used throughout the entire SCF-calculation: 115.2 MB


-------------------------------------------------------------------------------
                          DFT DISPERSION CORRECTION                            
                                                                               
                              DFTD3 V3.1  Rev 1                                
                          USING Becke-Johnson damping                          
-------------------------------------------------------------------------------
The B3LYP functional is recognized
Active option DFTDOPT                   ...         4   

molecular C6(AA) [au] = 1156.994647 


            DFT-D V3
 parameters
 s6 scaling factor         :     1.0000 
 a1 scaling factor         :     0.3981 
 s8 scaling factor         :     1.9889 
 a2 scaling factor         :     4.4211 
 ad hoc parameters k1-k3   :    16.0000     1.3333    -4.0000 

 Edisp/kcal,au: -7.900319153231  -0.012589958617 
 E6   /kcal   :  -3.750204743 
 E8   /kcal   :  -4.150114411 
 % E8         :  52.530971598 

-------------------------   ----------------
Dispersion correction           -0.012589959
-------------------------   ----------------


-------------------------   --------------------
FINAL SINGLE POINT ENERGY      -301.382151603743
-------------------------   --------------------


                            ***************************************
                            *     ORCA property calculations      *
                            ***************************************

                                    ---------------------
                                    Active property flags
                                    ---------------------
   (+) Dipole Moment


------------------------------------------------------------------------------
                       ORCA ELECTRIC PROPERTIES CALCULATION
------------------------------------------------------------------------------

Dipole Moment Calculation                       ... on
Quadrupole Moment Calculation                   ... off
Polarizability Calculation                      ... off
GBWName                                         ... ketone_c01_sp.gbw
Electron density                                ... ketone_c01_sp.scfp
The origin for moment calculation is the CENTER OF MASS  = (-0.005491,  0.023970  0.080435)

-------------
DIPOLE MOMENT
-------------
                                X             Y             Z
Electronic contribution:     -6.82420       1.76218       0.09869
Nuclear contribution   :      7.20127      -3.66880      -0.38627
                        -----------------------------------------
Total Dipole Moment    :      0.37707      -1.90662      -0.28758
                        -----------------------------------------
Magnitude (a.u.)       :      1.96471
Magnitude (Debye)      :      4.99391



--------------------
Rotational spectrum 
--------------------
 
Rotational constants in cm-1:     0.336960     0.077810     0.063974 
Rotational constants in MHz : 10101.800762  2332.675240  1917.905992 

 Dipole components along the rotational axes: 
x,y,z [a.u.] :     0.345652    -1.934062    -0.005165 
x,y,z [Debye]:     0.878578    -4.915996    -0.013127 

 

Timings for individual modules:

Sum of individual times         ...       61.901 sec (=   1.032 min)
GTO integral calculation        ...        0.296 sec (=   0.005 min)   0.5 %
SCF iterations                  ...       61.605 sec (=   1.027 min)  99.5 %
                             ****ORCA TERMINATED NORMALLY****
TOTAL RUN TIME: 0 days 0 hours 1 minutes 2 seconds 198 msec
