
                                 *****************
                                 * O   R   C   A *
                                 *****************

                                            #,                                       
                                            ###                                      
                                            ####                                     
                                            #####                                    
                                            ######                                   
                                           ########,                                 
                                     ,,################,,,,,                         
                               ,,#################################,,                 
                          ,,##########################################,,             
                       ,#########################################, ''#####,          
                    ,#############################################,,   '####,        
                  ,##################################################,,,,####,       
                ,###########''''           ''''###############################       
              ,#####''   ,,,,##########,,,,          '''####'''          '####       
            ,##' ,,,,###########################,,,                        '##       
           ' ,,###''''                  '''############,,,                           
         ,,##''                                '''############,,,,        ,,,,,,###''
      ,#''                                            '''#######################'''  
     '                                                          ''''####''''         
             ,#######,   #######,   ,#######,      ##                                
            ,#'     '#,  ##    ##  ,#'     '#,    #''#        ######   ,####,        
            ##       ##  ##   ,#'  ##            #'  '#       #        #'  '#        
            ##       ##  #######   ##           ,######,      #####,   #    #        
            '#,     ,#'  ##    ##  '#,     ,#' ,#      #,         ##   #,  ,#        
             '#######'   ##     ##  '#######'  #'      '#     #####' # '####'        



                  #######################################################
                  #                        -***-                        #
                  #          Department of theory and spectroscopy      #
                  #    Directorship and core code : Frank Neese         #
                  #        Max Planck Institute fuer Kohlenforschung    #
                  #                Kaiser Wilhelm Platz 1               #
                  #                 D-45470 Muelheim/Ruhr               #
                  #                      Germany                        #
                  #                                                     #
                  #                  All rights reserved                #
                  #                        -***-                        #
                  #######################################################


                         Program Version 5.0.3 -  RELEASE  -


 With contributions from (in alphabetic order):
   Daniel Aravena         : Magnetic Suceptibility
   Michael Atanasov       : Ab Initio Ligand Field Theory (pilot matlab implementation)
   Alexander A. Auer      : GIAO ZORA, VPT2 properties, NMR spectrum
   Ute Becker             : Parallelization
   Giovanni Bistoni       : ED, misc. LED, open-shell LED, HFLD
   Martin Brehm           : Molecular dynamics
   Dmytro Bykov           : SCF Hessian
   Vijay G. Chilkuri      : MRCI spin determinant printing, contributions to CSF-ICE
   Dipayan Datta          : RHF DLPNO-CCSD density
   Achintya Kumar Dutta   : EOM-CC, STEOM-CC
   Dmitry Ganyushin       : Spin-Orbit,Spin-Spin,Magnetic field MRCI
   Miquel Garcia          : C-PCM and meta-GGA Hessian, CC/C-PCM, Gaussian charge scheme
   Yang Guo               : DLPNO-NEVPT2, F12-NEVPT2, CIM, IAO-localization
   Andreas Hansen         : Spin unrestricted coupled pair/coupled cluster methods
   Benjamin Helmich-Paris : MC-RPA, TRAH-SCF, COSX integrals
   Lee Huntington         : MR-EOM, pCC
   Robert Izsak           : Overlap fitted RIJCOSX, COSX-SCS-MP3, EOM
   Marcus Kettner         : VPT2
   Christian Kollmar      : KDIIS, OOCD, Brueckner-CCSD(T), CCSD density, CASPT2, CASPT2-K
   Simone Kossmann        : Meta GGA functionals, TD-DFT gradient, OOMP2, MP2 Hessian
   Martin Krupicka        : Initial AUTO-CI
   Lucas Lang             : DCDCAS
   Marvin Lechner         : AUTO-CI (C++ implementation), FIC-MRCC
   Dagmar Lenk            : GEPOL surface, SMD
   Dimitrios Liakos       : Extrapolation schemes; Compound Job, initial MDCI parallelization
   Dimitrios Manganas     : Further ROCIS development; embedding schemes
   Dimitrios Pantazis     : SARC Basis sets
   Anastasios Papadopoulos: AUTO-CI, single reference methods and gradients
   Taras Petrenko         : DFT Hessian,TD-DFT gradient, ASA, ECA, R-Raman, ABS, FL, XAS/XES, NRVS
   Peter Pinski           : DLPNO-MP2, DLPNO-MP2 Gradient
   Christoph Reimann      : Effective Core Potentials
   Marius Retegan         : Local ZFS, SOC
   Christoph Riplinger    : Optimizer, TS searches, QM/MM, DLPNO-CCSD(T), (RO)-DLPNO pert. Triples
   Tobias Risthaus        : Range-separated hybrids, TD-DFT gradient, RPA, STAB
   Michael Roemelt        : Original ROCIS implementation
   Masaaki Saitow         : Open-shell DLPNO-CCSD energy and density
   Barbara Sandhoefer     : DKH picture change effects
   Avijit Sen             : IP-ROCIS
   Kantharuban Sivalingam : CASSCF convergence, NEVPT2, FIC-MRCI
   Bernardo de Souza      : ESD, SOC TD-DFT
   Georgi Stoychev        : AutoAux, RI-MP2 NMR, DLPNO-MP2 response
   Willem Van den Heuvel  : Paramagnetic NMR
   Boris Wezisla          : Elementary symmetry handling
   Frank Wennmohs         : Technical directorship


 We gratefully acknowledge several colleagues who have allowed us to
 interface, adapt or use parts of their codes:
   Stefan Grimme, W. Hujo, H. Kruse, P. Pracht,  : VdW corrections, initial TS optimization,
                  C. Bannwarth, S. Ehlert          DFT functionals, gCP, sTDA/sTD-DF
   Ed Valeev, F. Pavosevic, A. Kumar             : LibInt (2-el integral package), F12 methods
   Garnet Chan, S. Sharma, J. Yang, R. Olivares  : DMRG
   Ulf Ekstrom                                   : XCFun DFT Library
   Mihaly Kallay                                 : mrcc  (arbitrary order and MRCC methods)
   Jiri Pittner, Ondrej Demel                    : Mk-CCSD
   Frank Weinhold                                : gennbo (NPA and NBO analysis)
   Christopher J. Cramer and Donald G. Truhlar   : smd solvation model
   Lars Goerigk                                  : TD-DFT with DH, B97 family of functionals
   V. Asgeirsson, H. Jonsson                     : NEB implementation
   FAccTs GmbH                                   : IRC, NEB, NEB-TS, DLPNO-Multilevel, CI-OPT
                                                   MM, QMMM, 2- and 3-layer-ONIOM, Crystal-QMMM,
                                                   LR-CPCM, SF, NACMEs, symmetry and pop. for TD-DFT,
                                                   nearIR, NL-DFT gradient (VV10), updates on ESD,
                                                   ML-optimized integration grids
   S Lehtola, MJT Oliveira, MAL Marques          : LibXC Library
   Liviu Ungur et al                             : ANISO software


 Your calculation uses the libint2 library for the computation of 2-el integrals
 For citations please refer to: http://libint.valeyev.net

 Your ORCA version has been built with support for libXC version: 5.1.0
 For citations please refer to: https://tddft.org/programs/libxc/

 This ORCA versions uses:
   CBLAS   interface :  Fast vector & matrix operations
   LAPACKE interface :  Fast linear algebra routines
   SCALAPACK package :  Parallel linear algebra routines
   Shared memory     :  Shared parallel matrices


Your calculation utilizes the atom-pairwise dispersion correction
with the Becke-Johnson damping scheme (D3BJ)
Cite in your paper:
S.Grimme, S.Ehrlich, L.Goerigk, J Comput Chem, (2011), 32, 1456–1465 
S.Grimme, J.Antony, S.Ehrlich and H.Krieg, J.Chem.Phys., 132, (2010), 154104 
   

================================================================================

----- Orbital basis set information -----
Your calculation utilizes the basis: def2-SVP
   F. Weigend and R. Ahlrichs, Phys. Chem. Chem. Phys. 7, 3297 (2005).

----- AuxJ basis set information -----
Your calculation utilizes the auxiliary basis: def2/J
   F. Weigend, Phys. Chem. Chem. Phys. 8, 1057 (2006).

================================================================================
                                        WARNINGS
                       Please study these warnings very carefully!
================================================================================


WARNING: Geometry Optimization
  ===> : Switching off AutoStart
         For restart on a previous wavefunction, please use MOREAD

INFO   : the flag for use of the SHARK integral package has been found!

================================================================================
                                       INPUT FILE
================================================================================
NAME = diazo_c02.inp
|  1> ! b3lyp d3bj def2-svp Freq Opt tightscf cpcm(CH2Cl2)
|  2> %pal
|  3>     nprocs 1
|  4> end
|  5> %MaxCore 1000
|  6> %freq
|  7>     Temp    298.15
|  8> end
|  9> 
| 10> *xyz 0 1
| 11> C     0.934866  -0.645835  -0.118781
| 12> C    -0.312224   0.126756   0.008735
| 13> N     0.822161  -1.933417  -0.330475
| 14> O    -1.377214  -0.695565  -0.080738
| 15> O    -0.366061   1.325005   0.170151
| 16> C    -2.653190  -0.072377   0.149355
| 17> N     0.739339  -3.101242  -0.407590
| 18> H     1.887263  -0.172392   0.059483
| 19> H    -3.386502  -0.863239   0.043969
| 20> H    -2.693616   0.355296   1.147760
| 21> H    -2.831051   0.712699  -0.581033
| 22> *
| 23> 
| 24> 
| 25> 
| 26> 
| 27> 
| 28>                          ****END OF INPUT****
================================================================================

                       *****************************
                       * Geometry Optimization Run *
                       *****************************

Geometry optimization settings:
Update method            Update   .... BFGS
Choice of coordinates    CoordSys .... Z-matrix Internals
Initial Hessian          InHess   .... Almoef's Model

Convergence Tolerances:
Energy Change            TolE     ....  5.0000e-06 Eh
Max. Gradient            TolMAXG  ....  3.0000e-04 Eh/bohr
RMS Gradient             TolRMSG  ....  1.0000e-04 Eh/bohr
Max. Displacement        TolMAXD  ....  4.0000e-03 bohr
RMS Displacement         TolRMSD  ....  2.0000e-03 bohr
Strict Convergence                ....  False
------------------------------------------------------------------------------
                        ORCA OPTIMIZATION COORDINATE SETUP
------------------------------------------------------------------------------

The optimization will be done in new redundant internal coordinates
Making redundant internal coordinates   ...  (new redundants) done
Evaluating the initial hessian          ...  (Almloef) done
Evaluating the coordinates              ...  done
Calculating the B-matrix                .... done
Calculating the G-matrix                .... done
Diagonalizing the G-matrix              .... done
Small eigenvalue found = 2.972e-02
The first mode is                       ....    8
The number of degrees of freedom        ....   27

    -----------------------------------------------------------------
                    Redundant Internal Coordinates


    -----------------------------------------------------------------
         Definition                    Initial Value    Approx d2E/dq
    -----------------------------------------------------------------
      1. B(C   1,C   0)                  1.4725         0.461362   
      2. B(N   2,C   0)                  1.3097         0.751530   
      3. B(O   3,C   1)                  1.3485         0.651785   
      4. B(O   4,C   1)                  1.2103         1.082986   
      5. B(C   5,O   3)                  1.4385         0.468188   
      6. B(N   6,N   2)                  1.1733         1.111095   
      7. B(H   7,C   0)                  1.0784         0.375752   
      8. B(H   8,C   5)                  1.0837         0.368588   
      9. B(H   9,C   5)                  1.0869         0.364225   
     10. B(H  10,C   5)                  1.0869         0.364167   
     11. A(C   1,C   0,H   7)          120.2171         0.338222   
     12. A(N   2,C   0,H   7)          122.2970         0.365032   
     13. A(C   1,C   0,N   2)          117.1880         0.423330   
     14. A(C   0,C   1,O   4)          124.6578         0.452153   
     15. A(C   0,C   1,O   3)          110.0694         0.412726   
     16. A(O   3,C   1,O   4)          125.2728         0.478463   
     17. A(C   0,N   2,N   6)          174.3877         0.490163   
     18. A(C   1,O   3,C   5)          115.1967         0.411131   
     19. A(H   9,C   5,H  10)          109.0847         0.291875   
     20. A(H   8,C   5,H  10)          110.5512         0.292423   
     21. A(O   3,C   5,H  10)          110.5214         0.335242   
     22. A(H   8,C   5,H   9)          110.5685         0.292430   
     23. A(O   3,C   5,H   9)          110.5102         0.335251   
     24. A(O   3,C   5,H   8)          105.5758         0.335916   
     25. D(O   4,C   1,C   0,N   2)   -177.9750         0.014499   
     26. D(O   3,C   1,C   0,H   7)   -171.8502         0.014499   
     27. D(O   3,C   1,C   0,N   2)      2.0249         0.014499   
     28. D(O   4,C   1,C   0,H   7)      8.1500         0.014499   
     29. D(N   6,N   2,C   0,H   7)     74.8733         0.042915   
     30. D(N   6,N   2,C   0,C   1)    -98.8647         0.042915   
     31. D(C   5,O   3,C   1,C   0)    174.6700         0.031411   
     32. D(C   5,O   3,C   1,O   4)     -5.3301         0.031411   
     33. D(H  10,C   5,O   3,C   1)     60.6101         0.017276   
     34. D(H   9,C   5,O   3,C   1)    -60.2387         0.017276   
     35. D(H   8,C   5,O   3,C   1)   -179.8216         0.017276   
    -----------------------------------------------------------------

Number of atoms                         .... 11
Number of degrees of freedom            .... 35

         *************************************************************
         *                GEOMETRY OPTIMIZATION CYCLE   1            *
         *************************************************************
---------------------------------
CARTESIAN COORDINATES (ANGSTROEM)
---------------------------------
  C      0.934866   -0.645835   -0.118781
  C     -0.312224    0.126756    0.008735
  N      0.822161   -1.933417   -0.330475
  O     -1.377214   -0.695565   -0.080738
  O     -0.366061    1.325005    0.170151
  C     -2.653190   -0.072377    0.149355
  N      0.739339   -3.101242   -0.407590
  H      1.887263   -0.172392    0.059483
  H     -3.386502   -0.863239    0.043969
  H     -2.693616    0.355296    1.147760
  H     -2.831051    0.712699   -0.581033

----------------------------
CARTESIAN COORDINATES (A.U.)
----------------------------
  NO LB      ZA    FRAG     MASS         X           Y           Z
   0 C     6.0000    0    12.011    1.766641   -1.220451   -0.224464
   1 C     6.0000    0    12.011   -0.590018    0.239534    0.016507
   2 N     7.0000    0    14.007    1.553659   -3.653629   -0.624507
   3 O     8.0000    0    15.999   -2.602557   -1.314427   -0.152573
   4 O     8.0000    0    15.999   -0.691755    2.503897    0.321539
   5 C     6.0000    0    12.011   -5.013802   -0.136773    0.282240
   6 N     7.0000    0    14.007    1.397148   -5.860498   -0.770233
   7 H     1.0000    0     1.008    3.566410   -0.325774    0.112407
   8 H     1.0000    0     1.008   -6.399561   -1.631285    0.083089
   9 H     1.0000    0     1.008   -5.090197    0.671412    2.168952
  10 H     1.0000    0     1.008   -5.349911    1.346806   -1.097993

--------------------------------
INTERNAL COORDINATES (ANGSTROEM)
--------------------------------
 C      0   0   0     0.000000000000     0.00000000     0.00000000
 C      1   0   0     1.472545636521     0.00000000     0.00000000
 N      1   2   0     1.309726755238   117.18802542     0.00000000
 O      2   1   3     1.348488392560   110.06935762     2.02486591
 O      2   1   3     1.210270306017   124.65783726   182.02501292
 C      4   2   1     1.438548165537   115.19671718   174.67001447
 N      3   1   2     1.173295119539   174.38767636   261.13526282
 H      1   2   3     1.078418459390   120.21709757   186.12498258
 H      6   4   2     1.083658341630   105.57582853   180.17837758
 H      6   4   2     1.086899719583   110.51016726   299.76131178
 H      6   4   2     1.086943186943   110.52143298    60.61011004

---------------------------
INTERNAL COORDINATES (A.U.)
---------------------------
 C      0   0   0     0.000000000000     0.00000000     0.00000000
 C      1   0   0     2.782707972725     0.00000000     0.00000000
 N      1   2   0     2.475024877668   117.18802542     0.00000000
 O      2   1   3     2.548273756711   110.06935762     2.02486591
 O      2   1   3     2.287079426389   124.65783726   182.02501292
 C      4   2   1     2.718462063319   115.19671718   174.67001447
 N      3   1   2     2.217206450195   174.38767636   261.13526282
 H      1   2   3     2.037915546013   120.21709757   186.12498258
 H      6   4   2     2.047817488420   105.57582853   180.17837758
 H      6   4   2     2.053942805048   110.51016726   299.76131178
 H      6   4   2     2.054024946453   110.52143298    60.61011004

---------------------
BASIS SET INFORMATION
---------------------
There are 4 groups of distinct atoms

 Group   1 Type C   : 7s4p1d contracted to 3s2p1d pattern {511/31/1}
 Group   2 Type N   : 7s4p1d contracted to 3s2p1d pattern {511/31/1}
 Group   3 Type O   : 7s4p1d contracted to 3s2p1d pattern {511/31/1}
 Group   4 Type H   : 4s1p contracted to 2s1p pattern {31/1}

Atom   0C    basis set group =>   1
Atom   1C    basis set group =>   1
Atom   2N    basis set group =>   2
Atom   3O    basis set group =>   3
Atom   4O    basis set group =>   3
Atom   5C    basis set group =>   1
Atom   6N    basis set group =>   2
Atom   7H    basis set group =>   4
Atom   8H    basis set group =>   4
Atom   9H    basis set group =>   4
Atom  10H    basis set group =>   4
---------------------------------
AUXILIARY/J BASIS SET INFORMATION
---------------------------------
There are 4 groups of distinct atoms

 Group   1 Type C   : 12s5p4d2f1g contracted to 6s4p3d1f1g pattern {711111/2111/211/2/1}
 Group   2 Type N   : 12s5p4d2f1g contracted to 6s4p3d1f1g pattern {711111/2111/211/2/1}
 Group   3 Type O   : 12s5p4d2f1g contracted to 6s4p3d1f1g pattern {711111/2111/211/2/1}
 Group   4 Type H   : 5s2p1d contracted to 3s1p1d pattern {311/2/1}

Atom   0C    basis set group =>   1
Atom   1C    basis set group =>   1
Atom   2N    basis set group =>   2
Atom   3O    basis set group =>   3
Atom   4O    basis set group =>   3
Atom   5C    basis set group =>   1
Atom   6N    basis set group =>   2
Atom   7H    basis set group =>   4
Atom   8H    basis set group =>   4
Atom   9H    basis set group =>   4
Atom  10H    basis set group =>   4
------------------------------------------------------------------------------
                           ORCA GTO INTEGRAL CALCULATION
                           -- RI-GTO INTEGRALS CHOSEN --
------------------------------------------------------------------------------
------------------------------------------------------------------------------
                   ___                                                        
                  /   \      - P O W E R E D   B Y -                         
                 /     \                                                     
                 |  |  |   _    _      __       _____    __    __             
                 |  |  |  | |  | |    /  \     |  _  \  |  |  /  |          
                  \  \/   | |  | |   /    \    | | | |  |  | /  /          
                 / \  \   | |__| |  /  /\  \   | |_| |  |  |/  /          
                |  |  |   |  __  | /  /__\  \  |    /   |      \           
                |  |  |   | |  | | |   __   |  |    \   |  |\   \          
                \     /   | |  | | |  |  |  |  | |\  \  |  | \   \       
                 \___/    |_|  |_| |__|  |__|  |_| \__\ |__|  \__/        
                                                                              
                      - O R C A' S   B I G   F R I E N D -                    
                                      &                                       
                       - I N T E G R A L  F E E D E R -                       
                                                                              
 v1 FN, 2020, v2 2021                                                         
------------------------------------------------------------------------------


Reading SHARK input file diazo_c02.SHARKINP.tmp ... ok
----------------------
SHARK INTEGRAL PACKAGE
----------------------

Number of atoms                             ...     11
Number of basis functions                   ...    118
Number of shells                            ...     54
Maximum angular momentum                    ...      2
Integral batch strategy                     ... SHARK/LIBINT Hybrid
RI-J (if used) integral strategy            ... SPLIT-RIJ (Revised 2003 algorithm where possible)
Printlevel                                  ...      1
Contraction scheme used                     ... SEGMENTED contraction
Coulomb Range Separation                    ... NOT USED
Exchange Range Separation                   ... NOT USED
Finite Nucleus Model                        ... NOT USED
Auxiliary Coulomb fitting basis             ... AVAILABLE
   # of basis functions in Aux-J            ...    387
   # of shells in Aux-J                     ...    125
   Maximum angular momentum in Aux-J        ...      4
Auxiliary J/K fitting basis                 ... NOT available
Auxiliary Correlation fitting basis         ... NOT available
Auxiliary 'external' fitting basis          ... NOT available
Integral threshold                          ...     2.500000e-11
Primitive cut-off                           ...     2.500000e-12
Primitive pair pre-selection threshold      ...     2.500000e-12

Calculating pre-screening integrals         ... done (  0.0 sec) Dimension = 54
Organizing shell pair data                  ... done (  0.0 sec)
Shell pair information
Total number of shell pairs                 ...      1485
Shell pairs after pre-screening             ...      1397
Total number of primitive shell pairs       ...      5563
Primitive shell pairs kept                  ...      3881
          la=0 lb=0:    405 shell pairs
          la=1 lb=0:    494 shell pairs
          la=1 lb=1:    164 shell pairs
          la=2 lb=0:    187 shell pairs
          la=2 lb=1:    120 shell pairs
          la=2 lb=2:     27 shell pairs

Calculating one electron integrals          ... done (  0.0 sec)
Calculating RI/J V-Matrix + Cholesky decomp.... done (  0.0 sec)
Calculating Nuclear repulsion               ... done (  0.0 sec) ENN=    281.597659239513 Eh

SHARK setup successfully completed in   0.2 seconds

Maximum memory used throughout the entire GTOINT-calculation: 14.0 MB
-------------------------------------------------------------------------------
                                 ORCA SCF
-------------------------------------------------------------------------------

------------
SCF SETTINGS
------------
Hamiltonian:
 Density Functional     Method          .... DFT(GTOs)
 Exchange Functional    Exchange        .... B88
   X-Alpha parameter    XAlpha          ....  0.666667
   Becke's b parameter  XBeta           ....  0.004200
 Correlation Functional Correlation     .... LYP
 LDA part of GGA corr.  LDAOpt          .... VWN-5
 Gradients option       PostSCFGGA      .... off
 Hybrid DFT is turned on
   Fraction HF Exchange ScalHFX         ....  0.200000
   Scaling of DF-GGA-X  ScalDFX         ....  0.720000
   Scaling of DF-GGA-C  ScalDFC         ....  0.810000
   Scaling of DF-LDA-C  ScalLDAC        ....  1.000000
   Perturbative correction              ....  0.000000
   Density functional embedding theory  .... OFF
   NL short-range parameter             ....  4.800000
 RI-approximation to the Coulomb term is turned on
   Number of AuxJ basis functions       .... 387
   RIJ-COSX (HFX calculated with COS-X)).... on


General Settings:
 Integral files         IntName         .... diazo_c02
 Hartree-Fock type      HFTyp           .... RHF
 Total Charge           Charge          ....    0
 Multiplicity           Mult            ....    1
 Number of Electrons    NEL             ....   52
 Basis Dimension        Dim             ....  118
 Nuclear Repulsion      ENuc            ....    281.5976592395 Eh

Convergence Acceleration:
 DIIS                   CNVDIIS         .... on
   Start iteration      DIISMaxIt       ....    12
   Startup error        DIISStart       ....  0.200000
   # of expansion vecs  DIISMaxEq       ....     5
   Bias factor          DIISBfac        ....   1.050
   Max. coefficient     DIISMaxC        ....  10.000
 Trust-Rad. Augm. Hess. CNVTRAH         .... auto
   Auto Start mean grad. ratio tolernc. ....  1.125000
   Auto Start start iteration           ....    20
   Auto Start num. interpolation iter.  ....    10
   Max. Number of Micro iterations      ....    16
   Max. Number of Macro iterations      .... Maxiter - #DIIS iter
   Number of Davidson start vectors     ....     2
   Converg. threshold I  (grad. norm)   ....   1.000e-05
   Converg. threshold II (energy diff.) ....   1.000e-08
   Grad. Scal. Fac. for Micro threshold ....   0.100
   Minimum threshold for Micro iter.    ....   0.010
   NR start threshold (gradient norm)   ....   0.001
   Initial trust radius                 ....   0.400
   Minimum AH scaling param. (alpha)    ....   1.000
   Maximum AH scaling param. (alpha)    .... 1000.000
   Orbital update algorithm             .... Taylor
   White noise on init. David. guess    .... on
   Maximum white noise                  ....   0.010
   Quad. conv. algorithm                .... NR
 SOSCF                  CNVSOSCF        .... on
   Start iteration      SOSCFMaxIt      ....   150
   Startup grad/error   SOSCFStart      ....  0.003300
 Level Shifting         CNVShift        .... on
   Level shift para.    LevelShift      ....    0.2500
   Turn off err/grad.   ShiftErr        ....    0.0010
 Zerner damping         CNVZerner       .... off
 Static damping         CNVDamp         .... on
   Fraction old density DampFac         ....    0.7000
   Max. Damping (<1)    DampMax         ....    0.9800
   Min. Damping (>=0)   DampMin         ....    0.0000
   Turn off err/grad.   DampErr         ....    0.1000
 Fernandez-Rico         CNVRico         .... off

SCF Procedure:
 Maximum # iterations   MaxIter         ....   125
 SCF integral mode      SCFMode         .... Direct
   Integral package                     .... SHARK and LIBINT hybrid scheme
 Reset frequency        DirectResetFreq ....    20
 Integral Threshold     Thresh          ....  2.500e-11 Eh
 Primitive CutOff       TCut            ....  2.500e-12 Eh

Convergence Tolerance:
 Convergence Check Mode ConvCheckMode   .... Total+1el-Energy
 Convergence forced     ConvForced      .... 0
 Energy Change          TolE            ....  1.000e-08 Eh
 1-El. energy change                    ....  1.000e-05 Eh
 Orbital Gradient       TolG            ....  1.000e-05
 Orbital Rotation angle TolX            ....  1.000e-05
 DIIS Error             TolErr          ....  5.000e-07


Diagonalization of the overlap matrix:
Smallest eigenvalue                        ... 2.636e-03
Time for diagonalization                   ...    0.003 sec
Threshold for overlap eigenvalues          ... 1.000e-08
Number of eigenvalues below threshold      ... 0
Time for construction of square roots      ...    0.002 sec
Total time needed                          ...    0.005 sec

Time for model grid setup =    0.116 sec

------------------------------
INITIAL GUESS: MODEL POTENTIAL
------------------------------
Loading Hartree-Fock densities                     ... done
Calculating cut-offs                               ... done
Initializing the effective Hamiltonian             ... done
Setting up the integral package (SHARK)            ... done
Starting the Coulomb interaction                   ... done (   0.1 sec)
Reading the grid                                   ... done
Mapping shells                                     ... done
Starting the XC term evaluation                    ... done (   0.1 sec)
  promolecular density results
     # of electrons  =     51.998356510
     EX              =    -46.088135225
     EC              =     -1.804656643
     EX+EC           =    -47.892791867
Transforming the Hamiltonian                       ... done (   0.0 sec)
Diagonalizing the Hamiltonian                      ... done (   0.0 sec)
Back transforming the eigenvectors                 ... done (   0.0 sec)
Now organizing SCF variables                       ... done
                      ------------------
                      INITIAL GUESS DONE (   0.3 sec)
                      ------------------
-------------------
DFT GRID GENERATION
-------------------

General Integration Accuracy     IntAcc      ... 4.388
Radial Grid Type                 RadialGrid  ... OptM3 with GC (2021)
Angular Grid (max. ang.)         AngularGrid ... 4 (Lebedev-302)
Angular grid pruning method      GridPruning ... 4 (adaptive)
Weight generation scheme         WeightScheme... Becke
Basis function cutoff            BFCut       ... 1.0000e-11
Integration weight cutoff        WCut        ... 1.0000e-14
Angular grids for H and He will be reduced by one unit
Partially contracted basis set               ... off
Rotationally invariant grid construction     ... off

Total number of grid points                  ...    55503
Total number of batches                      ...      873
Average number of points per batch           ...       63
Average number of grid points per atom       ...     5046
Time for grid setup =    0.507 sec

--------------------
COSX GRID GENERATION
--------------------

GRIDX 1
-------
General Integration Accuracy     IntAcc      ... 3.816
Radial Grid Type                 RadialGrid  ... OptM3 with GC (2021)
Angular Grid (max. ang.)         AngularGrid ... 1 (Lebedev-50)
Angular grid pruning method      GridPruning ... 4 (adaptive)
Weight generation scheme         WeightScheme... Becke
Basis function cutoff            BFCut       ... 1.0000e-11
Integration weight cutoff        WCut        ... 1.0000e-14
Angular grids for H and He will be reduced by one unit
Partially contracted basis set               ... on
Rotationally invariant grid construction     ... off

Total number of grid points                  ...     7071
Total number of batches                      ...      117
Average number of points per batch           ...       60
Average number of grid points per atom       ...      643
UseSFitting                                  ... on

GRIDX 2
-------
General Integration Accuracy     IntAcc      ... 4.020
Radial Grid Type                 RadialGrid  ... OptM3 with GC (2021)
Angular Grid (max. ang.)         AngularGrid ... 2 (Lebedev-110)
Angular grid pruning method      GridPruning ... 4 (adaptive)
Weight generation scheme         WeightScheme... Becke
Basis function cutoff            BFCut       ... 1.0000e-11
Integration weight cutoff        WCut        ... 1.0000e-14
Angular grids for H and He will be reduced by one unit
Partially contracted basis set               ... on
Rotationally invariant grid construction     ... off

Total number of grid points                  ...    15959
Total number of batches                      ...      256
Average number of points per batch           ...       62
Average number of grid points per atom       ...     1451
UseSFitting                                  ... on

GRIDX 3
-------
General Integration Accuracy     IntAcc      ... 4.338
Radial Grid Type                 RadialGrid  ... OptM3 with GC (2021)
Angular Grid (max. ang.)         AngularGrid ... 3 (Lebedev-194)
Angular grid pruning method      GridPruning ... 4 (adaptive)
Weight generation scheme         WeightScheme... Becke
Basis function cutoff            BFCut       ... 1.0000e-11
Integration weight cutoff        WCut        ... 1.0000e-14
Angular grids for H and He will be reduced by one unit
Partially contracted basis set               ... on
Rotationally invariant grid construction     ... off

Total number of grid points                  ...    35251
Total number of batches                      ...      556
Average number of points per batch           ...       63
Average number of grid points per atom       ...     3205
UseSFitting                                  ... on

Time for X-Grid setup             =    0.615 sec


--------------------
CPCM SOLVATION MODEL
--------------------
CPCM parameters:
  Epsilon                                         ...       9.0800
  Refrac                                          ...       1.4240
  Rsolv                                           ...       1.3000
  Surface type                                    ... GAUSSIAN VDW
  Epsilon function type                           ...         CPCM
Radii:
 Radius for C  used is    3.8550 Bohr (=   2.0400 Ang.)
 Radius for N  used is    3.5149 Bohr (=   1.8600 Ang.)
 Radius for O  used is    3.4469 Bohr (=   1.8240 Ang.)
 Radius for H  used is    2.4944 Bohr (=   1.3200 Ang.)
Calculating surface                               ...        done! (  0.0s)
GEPOL surface points                              ...          702
GEPOL Volume                                      ...     805.2001
GEPOL Surface-area                                ...     494.7469
Calculating surface distance matrix               ...        done! (  0.0s)
Performing Cholesky decomposition & store         ...        done! (  0.0s)
Overall time for CPCM initialization              ...                 0.0s
--------------
SCF ITERATIONS
--------------
ITER       Energy         Delta-E        Max-DP      RMS-DP      [F,P]     Damp
               ***  Starting incremental Fock matrix formation  ***
  0   -375.9962564926   0.000000000000 0.10344832  0.00292589  0.2792982 0.7000
  1   -376.0722927584  -0.076036265847 0.06070509  0.00184544  0.1084564 0.7000
                               ***Turning on DIIS***
  2   -376.0986524685  -0.026359710040 0.06563692  0.00271972  0.0307142 0.0000
  3   -376.1459314942  -0.047279025771 0.04203522  0.00127973  0.0562377 0.0000
  4   -376.1538572251  -0.007925730862 0.01022773  0.00039151  0.0162560 0.0000
  5   -376.1545746168  -0.000717391682 0.00566635  0.00012920  0.0036826 0.0000
                      *** Initiating the SOSCF procedure ***
                           *** Shutting down DIIS ***
                      *** Re-Reading the Fockian *** 
                      *** Removing any level shift *** 
ITER      Energy       Delta-E        Grad      Rot      Max-DP    RMS-DP
  6   -376.15461659  -0.0000419712  0.000692  0.000692  0.001497  0.000046
               *** Restarting incremental Fock matrix formation ***
  7   -376.15462389  -0.0000073069  0.000374  0.001762  0.001191  0.000044
  8   -376.15462424  -0.0000003448  0.000448  0.000822  0.000849  0.000024
  9   -376.15462691  -0.0000026657  0.000130  0.000537  0.000559  0.000017
 10   -376.15462654   0.0000003609  0.000246  0.000403  0.000427  0.000010
 11   -376.15462716  -0.0000006153  0.000034  0.000135  0.000180  0.000005
 12   -376.15462713   0.0000000251  0.000043  0.000044  0.000103  0.000003
 13   -376.15462719  -0.0000000581  0.000008  0.000025  0.000042  0.000001
 14   -376.15462719   0.0000000045  0.000011  0.000013  0.000030  0.000001
                  ***Gradient check signals convergence***
              ***Rediagonalizing the Fockian in SOSCF/NRSCF***

               *****************************************************
               *                     SUCCESS                       *
               *           SCF CONVERGED AFTER  15 CYCLES          *
               *****************************************************

Old exchange energy                            =     -9.283419468 Eh
New exchange energy                            =     -9.283428322 Eh
Exchange energy change after final integration =     -0.000008854 Eh
Total energy after final integration           =   -376.154636049 Eh
Final COS-X integration done in                =     3.845 sec

----------------
TOTAL SCF ENERGY
----------------

Total Energy       :         -376.15463605 Eh          -10235.68802 eV

Components:
Nuclear Repulsion  :          281.59765924 Eh            7662.66187 eV
Electronic Energy  :         -657.75229529 Eh          -17898.34989 eV
One Electron Energy:        -1069.60254697 Eh          -29105.36499 eV
Two Electron Energy:          411.85025168 Eh           11207.01510 eV
Max COSX asymmetry :            0.00000246 Eh               0.00007 eV
CPCM Dielectric    :           -0.00857678 Eh              -0.23339 eV

Virial components:
Potential Energy   :         -749.10244908 Eh          -20384.11395 eV
Kinetic Energy     :          372.94781303 Eh           10148.42593 eV
Virial Ratio       :            2.00859858


DFT components:
N(Alpha)           :       26.000002859282 electrons
N(Beta)            :       26.000002859282 electrons
N(Total)           :       52.000005718563 electrons
E(X)               :      -37.007485953489 Eh       
E(C)               :       -2.126850823165 Eh       
E(XC)              :      -39.134336776654 Eh       
DFET-embed. en.    :        0.000000000000 Eh       
CPCM Solvation Model Properties:
Surface-charge          :           -0.01090763
Charge-correction       :           -0.00003235 Eh              -0.00088 eV
Free-energy (cav+disp)  :  This term is not implemented in the current solvation scheme

---------------
SCF CONVERGENCE
---------------

  Last Energy change         ...   -6.4404e-09  Tolerance :   1.0000e-08
  Last MAX-Density change    ...    3.5527e-15  Tolerance :   1.0000e-07
  Last RMS-Density change    ...    5.3515e-17  Tolerance :   5.0000e-09
  Last Orbital Gradient      ...    2.7790e-07  Tolerance :   1.0000e-05
  Last Orbital Rotation      ...    1.9070e-06  Tolerance :   1.0000e-05

             **** THE GBW FILE WAS UPDATED (diazo_c02.gbw) ****
             **** DENSITY diazo_c02.scfp WAS UPDATED ****
             **** ENERGY FILE WAS UPDATED (diazo_c02.en.tmp) ****
             **** THE GBW FILE WAS UPDATED (diazo_c02.gbw) ****
             **** DENSITY diazo_c02.scfp WAS UPDATED ****
----------------
ORBITAL ENERGIES
----------------

  NO   OCC          E(Eh)            E(eV) 
   0   2.0000     -19.177696      -521.8516 
   1   2.0000     -19.124091      -520.3930 
   2   2.0000     -14.488452      -394.2508 
   3   2.0000     -14.426039      -392.5525 
   4   2.0000     -10.323150      -280.9072 
   5   2.0000     -10.240925      -278.6697 
   6   2.0000     -10.234982      -278.5080 
   7   2.0000      -1.103432       -30.0259 
   8   2.0000      -1.088556       -29.6211 
   9   2.0000      -1.008920       -27.4541 
  10   2.0000      -0.862730       -23.4761 
  11   2.0000      -0.726087       -19.7578 
  12   2.0000      -0.622455       -16.9379 
  13   2.0000      -0.561266       -15.2728 
  14   2.0000      -0.529227       -14.4010 
  15   2.0000      -0.499050       -13.5798 
  16   2.0000      -0.474220       -12.9042 
  17   2.0000      -0.469846       -12.7852 
  18   2.0000      -0.461585       -12.5604 
  19   2.0000      -0.442194       -12.0327 
  20   2.0000      -0.408828       -11.1248 
  21   2.0000      -0.400523       -10.8988 
  22   2.0000      -0.363460        -9.8902 
  23   2.0000      -0.308696        -8.4000 
  24   2.0000      -0.288844        -7.8598 
  25   2.0000      -0.244864        -6.6631 
  26   0.0000      -0.076837        -2.0908 
  27   0.0000      -0.042306        -1.1512 
  28   0.0000       0.070244         1.9114 
  29   0.0000       0.086625         2.3572 
  30   0.0000       0.106284         2.8921 
  31   0.0000       0.134708         3.6656 
  32   0.0000       0.138982         3.7819 
  33   0.0000       0.149294         4.0625 
  34   0.0000       0.205753         5.5988 
  35   0.0000       0.229240         6.2379 
  36   0.0000       0.282798         7.6953 
  37   0.0000       0.300351         8.1730 
  38   0.0000       0.360856         9.8194 
  39   0.0000       0.442865        12.0510 
  40   0.0000       0.444421        12.0933 
  41   0.0000       0.474299        12.9063 
  42   0.0000       0.475307        12.9338 
  43   0.0000       0.487422        13.2634 
  44   0.0000       0.513568        13.9749 
  45   0.0000       0.551603        15.0099 
  46   0.0000       0.610335        16.6081 
  47   0.0000       0.615653        16.7528 
  48   0.0000       0.633189        17.2299 
  49   0.0000       0.646335        17.5877 
  50   0.0000       0.655447        17.8356 
  51   0.0000       0.658294        17.9131 
  52   0.0000       0.661519        18.0008 
  53   0.0000       0.692831        18.8529 
  54   0.0000       0.712223        19.3806 
  55   0.0000       0.726045        19.7567 
  56   0.0000       0.765780        20.8379 
  57   0.0000       0.792759        21.5721 
  58   0.0000       0.822806        22.3897 
  59   0.0000       0.869639        23.6641 
  60   0.0000       0.930955        25.3326 
  61   0.0000       0.977588        26.6015 
  62   0.0000       0.991585        26.9824 
  63   0.0000       0.999660        27.2021 
  64   0.0000       1.056530        28.7496 
  65   0.0000       1.078926        29.3591 
  66   0.0000       1.160011        31.5655 
  67   0.0000       1.254262        34.1302 
  68   0.0000       1.261814        34.3357 
  69   0.0000       1.308503        35.6062 
  70   0.0000       1.339840        36.4589 
  71   0.0000       1.406199        38.2646 
  72   0.0000       1.473748        40.1027 
  73   0.0000       1.521434        41.4003 
  74   0.0000       1.527062        41.5535 
  75   0.0000       1.586253        43.1641 
  76   0.0000       1.654725        45.0274 
  77   0.0000       1.671258        45.4772 
  78   0.0000       1.696257        46.1575 
  79   0.0000       1.730688        47.0944 
  80   0.0000       1.767731        48.1024 
  81   0.0000       1.800252        48.9874 
  82   0.0000       1.833674        49.8968 
  83   0.0000       1.843164        50.1551 
  84   0.0000       1.853922        50.4478 
  85   0.0000       1.906154        51.8691 
  86   0.0000       1.914867        52.1062 
  87   0.0000       1.932217        52.5783 
  88   0.0000       1.976580        53.7855 
  89   0.0000       2.064070        56.1662 
  90   0.0000       2.139607        58.2217 
  91   0.0000       2.158714        58.7416 
  92   0.0000       2.190384        59.6034 
  93   0.0000       2.250744        61.2459 
  94   0.0000       2.290396        62.3249 
  95   0.0000       2.332485        63.4702 
  96   0.0000       2.346884        63.8620 
  97   0.0000       2.367829        64.4319 
  98   0.0000       2.438458        66.3538 
  99   0.0000       2.505410        68.1757 
 100   0.0000       2.634503        71.6885 
 101   0.0000       2.679410        72.9104 
 102   0.0000       2.697245        73.3958 
 103   0.0000       2.764684        75.2309 
 104   0.0000       2.786325        75.8198 
 105   0.0000       2.809953        76.4627 
 106   0.0000       2.885956        78.5309 
 107   0.0000       2.902627        78.9845 
 108   0.0000       2.969425        80.8022 
 109   0.0000       3.017508        82.1106 
 110   0.0000       3.119447        84.8845 
 111   0.0000       3.165666        86.1421 
 112   0.0000       3.222420        87.6865 
 113   0.0000       3.287290        89.4517 
 114   0.0000       3.439471        93.5928 
 115   0.0000       3.571238        97.1783 
 116   0.0000       3.677365       100.0662 
 117   0.0000       3.739415       101.7546 

                    ********************************
                    * MULLIKEN POPULATION ANALYSIS *
                    ********************************

-----------------------
MULLIKEN ATOMIC CHARGES
-----------------------
   0 C :   -0.121726
   1 C :    0.239182
   2 N :    0.188504
   3 O :   -0.340995
   4 O :   -0.276920
   5 C :    0.196387
   6 N :   -0.077356
   7 H :    0.080891
   8 H :    0.041696
   9 H :    0.035713
  10 H :    0.034624
Sum of atomic charges:    0.0000000

--------------------------------
MULLIKEN REDUCED ORBITAL CHARGES
--------------------------------
  0 C s       :     3.158337  s :     3.158337
      pz      :     1.235985  p :     2.921928
      px      :     0.938489
      py      :     0.747455
      dz2     :     0.004258  d :     0.041461
      dxz     :     0.002380
      dyz     :     0.008343
      dx2y2   :     0.015091
      dxy     :     0.011390
  1 C s       :     3.003344  s :     3.003344
      pz      :     0.835516  p :     2.622721
      px      :     0.879358
      py      :     0.907847
      dz2     :     0.008360  d :     0.134753
      dxz     :     0.013059
      dyz     :     0.027496
      dx2y2   :     0.029136
      dxy     :     0.056702
  2 N s       :     3.387081  s :     3.387081
      pz      :     1.238518  p :     3.375580
      px      :     1.213885
      py      :     0.923177
      dz2     :     0.003457  d :     0.048835
      dxz     :     0.000310
      dyz     :     0.025497
      dx2y2   :     0.007597
      dxy     :     0.011974
  3 O s       :     3.749916  s :     3.749916
      pz      :     1.755260  p :     4.574903
      px      :     1.211664
      py      :     1.607979
      dz2     :     0.002173  d :     0.016176
      dxz     :     0.002321
      dyz     :     0.002064
      dx2y2   :     0.002608
      dxy     :     0.007011
  4 O s       :     3.720080  s :     3.720080
      pz      :     1.451440  p :     4.538857
      px      :     1.759556
      py      :     1.327862
      dz2     :     0.002110  d :     0.017983
      dxz     :     0.000109
      dyz     :     0.005588
      dx2y2   :     0.006229
      dxy     :     0.003947
  5 C s       :     2.996262  s :     2.996262
      pz      :     1.038957  p :     2.757663
      px      :     0.747718
      py      :     0.970989
      dz2     :     0.009605  d :     0.049688
      dxz     :     0.006790
      dyz     :     0.008773
      dx2y2   :     0.009552
      dxy     :     0.014968
  6 N s       :     3.865672  s :     3.865672
      pz      :     1.308459  p :     3.171943
      px      :     0.825870
      py      :     1.037614
      dz2     :     0.003853  d :     0.039741
      dxz     :     0.000114
      dyz     :     0.011384
      dx2y2   :     0.011276
      dxy     :     0.013115
  7 H s       :     0.894564  s :     0.894564
      pz      :     0.006619  p :     0.024544
      px      :     0.013351
      py      :     0.004574
  8 H s       :     0.935744  s :     0.935744
      pz      :     0.005207  p :     0.022560
      px      :     0.007567
      py      :     0.009787
  9 H s       :     0.940952  s :     0.940952
      pz      :     0.013848  p :     0.023335
      px      :     0.002875
      py      :     0.006612
 10 H s       :     0.942007  s :     0.942007
      pz      :     0.009591  p :     0.023369
      px      :     0.003346
      py      :     0.010432


                     *******************************
                     * LOEWDIN POPULATION ANALYSIS *
                     *******************************

----------------------
LOEWDIN ATOMIC CHARGES
----------------------
   0 C :   -0.151886
   1 C :    0.072704
   2 N :    0.231163
   3 O :   -0.118069
   4 O :   -0.220308
   5 C :    0.097274
   6 N :   -0.048258
   7 H :    0.060186
   8 H :    0.030084
   9 H :    0.024008
  10 H :    0.023101

-------------------------------
LOEWDIN REDUCED ORBITAL CHARGES
-------------------------------
  0 C s       :     2.867787  s :     2.867787
      pz      :     1.211701  p :     3.173955
      px      :     1.056929
      py      :     0.905325
      dz2     :     0.010784  d :     0.110145
      dxz     :     0.004969
      dyz     :     0.016891
      dx2y2   :     0.043407
      dxy     :     0.034094
  1 C s       :     2.834608  s :     2.834608
      pz      :     0.835452  p :     2.790264
      px      :     0.943046
      py      :     1.011766
      dz2     :     0.018724  d :     0.302424
      dxz     :     0.025736
      dyz     :     0.053441
      dx2y2   :     0.068973
      dxy     :     0.135550
  2 N s       :     3.092884  s :     3.092884
      pz      :     1.192289  p :     3.574118
      px      :     1.155033
      py      :     1.226796
      dz2     :     0.007891  d :     0.101835
      dxz     :     0.000619
      dyz     :     0.050981
      dx2y2   :     0.019675
      dxy     :     0.022669
  3 O s       :     3.458319  s :     3.458319
      pz      :     1.731932  p :     4.629082
      px      :     1.260491
      py      :     1.636659
      dz2     :     0.004141  d :     0.030668
      dxz     :     0.004207
      dyz     :     0.002313
      dx2y2   :     0.005751
      dxy     :     0.014256
  4 O s       :     3.541620  s :     3.541620
      pz      :     1.445830  p :     4.648052
      px      :     1.743016
      py      :     1.459206
      dz2     :     0.004299  d :     0.030636
      dxz     :     0.000149
      dyz     :     0.007320
      dx2y2   :     0.012990
      dxy     :     0.005879
  5 C s       :     2.842456  s :     2.842456
      pz      :     1.084873  p :     2.946342
      px      :     0.820950
      py      :     1.040519
      dz2     :     0.022299  d :     0.113928
      dxz     :     0.014256
      dyz     :     0.022533
      dx2y2   :     0.019885
      dxy     :     0.034955
  6 N s       :     3.512664  s :     3.512664
      pz      :     1.318010  p :     3.460648
      px      :     0.850558
      py      :     1.292081
      dz2     :     0.009463  d :     0.074946
      dxz     :     0.000173
      dyz     :     0.017746
      dx2y2   :     0.028080
      dxy     :     0.019484
  7 H s       :     0.861737  s :     0.861737
      pz      :     0.022726  p :     0.078077
      px      :     0.039718
      py      :     0.015632
  8 H s       :     0.904378  s :     0.904378
      pz      :     0.013241  p :     0.065538
      px      :     0.023788
      py      :     0.028509
  9 H s       :     0.909014  s :     0.909014
      pz      :     0.040149  p :     0.066978
      px      :     0.009211
      py      :     0.017617
 10 H s       :     0.909630  s :     0.909630
      pz      :     0.026803  p :     0.067268
      px      :     0.010515
      py      :     0.029951


                      *****************************
                      * MAYER POPULATION ANALYSIS *
                      *****************************

  NA   - Mulliken gross atomic population
  ZA   - Total nuclear charge
  QA   - Mulliken gross atomic charge
  VA   - Mayer's total valence
  BVA  - Mayer's bonded valence
  FA   - Mayer's free valence

  ATOM       NA         ZA         QA         VA         BVA        FA
  0 C      6.1217     6.0000    -0.1217     3.6704     3.6704     0.0000
  1 C      5.7608     6.0000     0.2392     4.3610     4.3610     0.0000
  2 N      6.8115     7.0000     0.1885     3.5642     3.5642    -0.0000
  3 O      8.3410     8.0000    -0.3410     2.1793     2.1793    -0.0000
  4 O      8.2769     8.0000    -0.2769     2.2319     2.2319     0.0000
  5 C      5.8036     6.0000     0.1964     3.9012     3.9012    -0.0000
  6 N      7.0774     7.0000    -0.0774     2.6110     2.6110     0.0000
  7 H      0.9191     1.0000     0.0809     1.0099     1.0099    -0.0000
  8 H      0.9583     1.0000     0.0417     0.9931     0.9931    -0.0000
  9 H      0.9643     1.0000     0.0357     0.9970     0.9970    -0.0000
 10 H      0.9654     1.0000     0.0346     0.9997     0.9997    -0.0000

  Mayer bond orders larger than 0.100000
B(  0-C ,  1-C ) :   1.0574 B(  0-C ,  2-N ) :   1.3477 B(  0-C ,  6-N ) :   0.3017 
B(  0-C ,  7-H ) :   0.9543 B(  1-C ,  3-O ) :   1.1944 B(  1-C ,  4-O ) :   1.9971 
B(  2-N ,  6-N ) :   2.1598 B(  3-O ,  5-C ) :   0.9046 B(  5-C ,  8-H ) :   0.9804 
B(  5-C ,  9-H ) :   0.9771 B(  5-C , 10-H ) :   0.9765 

-------
TIMINGS
-------

Total SCF time: 0 days 0 hours 0 min 38 sec 

Total time                  ....      38.391 sec
Sum of individual times     ....      38.127 sec  ( 99.3%)

Fock matrix formation       ....      36.577 sec  ( 95.3%)
  Split-RI-J                ....       2.096 sec  (  5.7% of F)
  Chain of spheres X        ....      24.389 sec  ( 66.7% of F)
  XC integration            ....       6.348 sec  ( 17.4% of F)
    Basis function eval.    ....       2.394 sec  ( 37.7% of XC)
    Density eval.           ....       1.506 sec  ( 23.7% of XC)
    XC-Functional eval.     ....       0.542 sec  (  8.5% of XC)
    XC-Potential eval.      ....       1.295 sec  ( 20.4% of XC)
Diagonalization             ....       0.019 sec  (  0.0%)
Density matrix formation    ....       0.002 sec  (  0.0%)
Population analysis         ....       0.034 sec  (  0.1%)
Initial guess               ....       0.212 sec  (  0.6%)
Orbital Transformation      ....       0.000 sec  (  0.0%)
Orbital Orthonormalization  ....       0.000 sec  (  0.0%)
DIIS solution               ....       0.025 sec  (  0.1%)
SOSCF solution              ....       0.019 sec  (  0.1%)
Grid generation             ....       1.238 sec  (  3.2%)

Maximum memory used throughout the entire SCF-calculation: 58.7 MB


-------------------------------------------------------------------------------
                          DFT DISPERSION CORRECTION                            
                                                                               
                              DFTD3 V3.1  Rev 1                                
                          USING Becke-Johnson damping                          
-------------------------------------------------------------------------------
The B3LYP functional is recognized
Active option DFTDOPT                   ...         4   

molecular C6(AA) [au] = 1380.400086 


            DFT-D V3
 parameters
 s6 scaling factor         :     1.0000 
 a1 scaling factor         :     0.3981 
 s8 scaling factor         :     1.9889 
 a2 scaling factor         :     4.4211 
 ad hoc parameters k1-k3   :    16.0000     1.3333    -4.0000 

 Edisp/kcal,au: -8.700903645766  -0.013865771080 
 E6   /kcal   :  -4.152510535 
 E8   /kcal   :  -4.548393110 
 % E8         :  52.274950920 

-------------------------   ----------------
Dispersion correction           -0.013865771
-------------------------   ----------------


-------------------------   --------------------
FINAL SINGLE POINT ENERGY      -376.168501819943
-------------------------   --------------------

------------------------------------------------------------------------------
                         ORCA SCF GRADIENT CALCULATION
------------------------------------------------------------------------------

 ... reading COSX grid (gridx3)
Gradient of the Kohn-Sham DFT energy:
Kohn-Sham wavefunction type      ... RKS
Hartree-Fock exchange scaling    ...    0.200
Number of operators              ...    1
Number of atoms                  ...   11
Basis set dimensions             ...  118
Integral neglect threshold       ... 2.5e-11
Integral primitive cutoff        ... 2.5e-12
SHARK Integral package           ... ON

Nuc. rep. gradient       (SHARK) ... done (  0.0 sec)
HCore & Overlap gradient (SHARK) ... done (  0.1 sec)
RI-J gradient            (SHARK) ... done (  0.5 sec)
COSX-gradient                    ... done (  5.0 sec)
Exchange-correlation gradient    ... done
Dispersion correction            ... done

------------------
CARTESIAN GRADIENT
------------------

   1   C   :    0.021637943    0.004049631    0.003644261
   2   C   :   -0.007094583    0.011459047    0.005078565
   3   N   :   -0.007278750    0.076136217   -0.008874800
   4   O   :    0.006032195   -0.009797946   -0.003614272
   5   O   :    0.001520373   -0.002167265   -0.002498908
   6   C   :   -0.008380719    0.005809586    0.003968142
   7   N   :   -0.004377237   -0.083920130    0.001394970
   8   H   :   -0.010542324    0.001751979    0.002600432
   9   H   :    0.006659415    0.005904510    0.000675747
  10   H   :    0.000207871   -0.003156896   -0.008365225
  11   H   :    0.001814684   -0.006126129    0.006026494

Difference to translation invariance:
           :    0.0001988684   -0.0000573959    0.0000354063

Difference to rotation invariance:
           :    0.0001451261   -0.0001580029    0.0002923353

Norm of the cartesian gradient     ...    0.1197233474
RMS gradient                       ...    0.0208411597
MAX gradient                       ...    0.0839201297

-------
TIMINGS
-------

Total SCF gradient time            ...        9.839 sec

One electron gradient       ....       0.073 sec  (  0.7%)
RI-J Coulomb gradient       ....       0.518 sec  (  5.3%)
COSX gradient               ....       5.043 sec  ( 51.3%)
XC gradient                 ....       3.513 sec  ( 35.7%)
CPCM gradient               ....       0.193 sec  (  2.0%)
   A-Matrix (El+Nuc)        ....       0.034 sec  (  0.3%)
   Potential                ....       0.158 sec  (  1.6%)

Maximum memory used throughout the entire SCFGRAD-calculation: 46.7 MB
------------------------------------------------------------------------------
                         ORCA GEOMETRY RELAXATION STEP
------------------------------------------------------------------------------

Reading the OPT-File                    .... done
Getting information on internals        .... done
Copying old internal coords+grads       .... done
Making the new internal coordinates     .... (new redundants).... done
Validating the new internal coordinates .... (new redundants).... done
Calculating the B-matrix                .... done
Calculating the G,G- and P matrices     .... done
Transforming gradient to internals      .... done
Projecting the internal gradient        .... done
Number of atoms                         ....  11
Number of internal coordinates          ....  35
Current Energy                          ....  -376.168501820 Eh
Current gradient norm                   ....     0.119723347 Eh/bohr
Maximum allowed component of the step   ....  0.300
Current trust radius                    ....  0.300
Evaluating the initial hessian          ....  (Almloef) done
Projecting the Hessian                  .... done
Forming the augmented Hessian           .... done
Diagonalizing the augmented Hessian     .... done
Last element of RFO vector              ....  0.984730393
Lowest eigenvalues of augmented Hessian:
 -0.009569220  0.014690466  0.017276340  0.020192735  0.025211922
Length of the computed step             ....  0.176785788
The final length of the internal step   ....  0.176785788
Converting the step to cartesian space:
 Initial RMS(Int)=    0.0298822522
Transforming coordinates:
 Iter   0:  RMS(Cart)=    0.0533369943 RMS(Int)=    0.0312620438
 Iter   1:  RMS(Cart)=    0.0023731191 RMS(Int)=    0.0148916011
 Iter   2:  RMS(Cart)=    0.0006932668 RMS(Int)=    0.0078464960
 Iter   3:  RMS(Cart)=    0.0003667202 RMS(Int)=    0.0039712922
 Iter   4:  RMS(Cart)=    0.0001883417 RMS(Int)=    0.0020137011
 Iter   5:  RMS(Cart)=    0.0000954891 RMS(Int)=    0.0010219644
 Iter   6:  RMS(Cart)=    0.0000484422 RMS(Int)=    0.0005183693
 Iter   7:  RMS(Cart)=    0.0000245718 RMS(Int)=    0.0002629806
 Iter   8:  RMS(Cart)=    0.0000124656 RMS(Int)=    0.0001334017
 Iter   9:  RMS(Cart)=    0.0000063235 RMS(Int)=    0.0000676740
 Iter  10:  RMS(Cart)=    0.0000032079 RMS(Int)=    0.0000343297
 Iter  11:  RMS(Cart)=    0.0000016273 RMS(Int)=    0.0000174151
 Iter  12:  RMS(Cart)=    0.0000008255 RMS(Int)=    0.0000088344
 Iter  13:  RMS(Cart)=    0.0000004188 RMS(Int)=    0.0000044816
 Iter  14:  RMS(Cart)=    0.0000002124 RMS(Int)=    0.0000022734
 Iter  15:  RMS(Cart)=    0.0000001078 RMS(Int)=    0.0000011533
 Iter  16:  RMS(Cart)=    0.0000000547 RMS(Int)=    0.0000005850
done
Storing new coordinates                 .... done

                                .--------------------.
          ----------------------|Geometry convergence|-------------------------
          Item                value                   Tolerance       Converged
          ---------------------------------------------------------------------
          RMS gradient        0.0153228719            0.0001000000      NO
          MAX gradient        0.0837445154            0.0003000000      NO
          RMS step            0.0298822522            0.0020000000      NO
          MAX step            0.0800541195            0.0040000000      NO
          ........................................................
          Max(Bonds)      0.0395      Max(Angles)    1.80
          Max(Dihed)        4.59      Max(Improp)    0.00
          ---------------------------------------------------------------------

The optimization has not yet converged - more geometry cycles are needed


    ---------------------------------------------------------------------------
                         Redundant Internal Coordinates
                            (Angstroem and degrees)

        Definition                    Value    dE/dq     Step     New-Value
    ----------------------------------------------------------------------------
     1. B(C   1,C   0)                1.4725  0.000602 -0.0007    1.4719   
     2. B(N   2,C   0)                1.3097  0.009861 -0.0069    1.3029   
     3. B(O   3,C   1)                1.3485 -0.000372  0.0003    1.3488   
     4. B(O   4,C   1)                1.2103 -0.002542  0.0012    1.2115   
     5. B(C   5,O   3)                1.4385  0.001229 -0.0014    1.4372   
     6. B(N   6,N   2)                1.1733  0.083745 -0.0395    1.1338   
     7. B(H   7,C   0)                1.0784 -0.008128  0.0112    1.0896   
     8. B(H   8,C   5)                1.0837 -0.008874  0.0124    1.0961   
     9. B(H   9,C   5)                1.0869 -0.008928  0.0126    1.0995   
    10. B(H  10,C   5)                1.0869 -0.008766  0.0124    1.0994   
    11. A(C   1,C   0,H   7)          120.22 -0.001549    0.45    120.67   
    12. A(N   2,C   0,H   7)          122.30  0.012468   -1.71    120.58   
    13. A(C   1,C   0,N   2)          117.19 -0.011196    1.64    118.83   
    14. A(C   0,C   1,O   4)          124.66  0.004228   -0.59    124.07   
    15. A(C   0,C   1,O   3)          110.07 -0.011734    1.53    111.59   
    16. A(O   3,C   1,O   4)          125.27  0.007506   -0.94    124.33   
    17. A(C   0,N   2,N   6)          174.39 -0.015710    1.80    176.19   
    18. A(C   1,O   3,C   5)          115.20 -0.005687    0.77    115.97   
    19. A(H   9,C   5,H  10)          109.08 -0.000231    0.05    109.14   
    20. A(H   8,C   5,H  10)          110.55  0.000630   -0.11    110.44   
    21. A(O   3,C   5,H  10)          110.52 -0.000296    0.06    110.58   
    22. A(H   8,C   5,H   9)          110.57  0.000477   -0.10    110.47   
    23. A(O   3,C   5,H   9)          110.51  0.000652   -0.11    110.40   
    24. A(O   3,C   5,H   8)          105.58 -0.001236    0.21    105.78   
    25. D(O   4,C   1,C   0,N   2)   -177.97  0.000088   -0.74   -178.72   
    26. D(O   3,C   1,C   0,H   7)   -171.85  0.002109   -4.49   -176.34   
    27. D(O   3,C   1,C   0,N   2)      2.02  0.000037   -0.64      1.38   
    28. D(O   4,C   1,C   0,H   7)      8.15  0.002159   -4.59      3.56   
    29. D(N   6,N   2,C   0,H   7)     74.87 -0.001582    2.09     76.96   
    30. D(N   6,N   2,C   0,C   1)    -98.86  0.001500   -2.00   -100.86   
    31. D(C   5,O   3,C   1,C   0)    174.67 -0.001790    2.49    177.16   
    32. D(C   5,O   3,C   1,O   4)     -5.33 -0.001841    2.59     -2.74   
    33. D(H  10,C   5,O   3,C   1)     60.61 -0.000007    0.07     60.68   
    34. D(H   9,C   5,O   3,C   1)    -60.24  0.000049    0.04    -60.20   
    35. D(H   8,C   5,O   3,C   1)   -179.82 -0.000141    0.10   -179.72   
    ----------------------------------------------------------------------------

         *************************************************************
         *                GEOMETRY OPTIMIZATION CYCLE   2            *
         *************************************************************
---------------------------------
CARTESIAN COORDINATES (ANGSTROEM)
---------------------------------
  C      0.930860   -0.668075   -0.108181
  C     -0.317564    0.098029    0.036465
  N      0.858510   -1.951879   -0.318144
  O     -1.401993   -0.699599   -0.047371
  O     -0.362367    1.296059    0.210969
  C     -2.672744   -0.056413    0.145009
  N      0.810922   -3.079315   -0.427755
  H      1.898319   -0.177634   -0.004855
  H     -3.425044   -0.847649    0.048194
  H     -2.723111    0.401998    1.143163
  H     -2.832019    0.720167   -0.616658

----------------------------
CARTESIAN COORDINATES (A.U.)
----------------------------
  NO LB      ZA    FRAG     MASS         X           Y           Z
   0 C     6.0000    0    12.011    1.759071   -1.262479   -0.204433
   1 C     6.0000    0    12.011   -0.600108    0.185247    0.068909
   2 N     7.0000    0    14.007    1.622349   -3.688517   -0.601206
   3 O     8.0000    0    15.999   -2.649382   -1.322050   -0.089518
   4 O     8.0000    0    15.999   -0.684774    2.449197    0.398673
   5 C     6.0000    0    12.011   -5.050754   -0.106605    0.274028
   6 N     7.0000    0    14.007    1.532421   -5.819063   -0.808340
   7 H     1.0000    0     1.008    3.587303   -0.335680   -0.009175
   8 H     1.0000    0     1.008   -6.472396   -1.601824    0.091074
   9 H     1.0000    0     1.008   -5.145934    0.759666    2.160265
  10 H     1.0000    0     1.008   -5.351739    1.360919   -1.165314

--------------------------------
INTERNAL COORDINATES (ANGSTROEM)
--------------------------------
 C      0   0   0     0.000000000000     0.00000000     0.00000000
 C      1   0   0     1.471869546600     0.00000000     0.00000000
 N      1   2   0     1.302870796428   118.79100908     0.00000000
 O      2   1   3     1.348786070587   111.59443543     1.39927321
 O      2   1   3     1.211501469658   124.07185148   181.30218665
 C      4   2   1     1.437187260690   115.97119986   177.15945588
 N      3   1   2     1.133750996978   176.18883694   259.16936256
 H      1   2   3     1.089580333137   120.63174074   182.24346450
 H      6   4   2     1.096076301200   105.78244143   180.27531918
 H      6   4   2     1.099539530311   110.40167489   299.80324070
 H      6   4   2     1.099355416657   110.57875625    60.68207864

---------------------------
INTERNAL COORDINATES (A.U.)
---------------------------
 C      0   0   0     0.000000000000     0.00000000     0.00000000
 C      1   0   0     2.781430347934     0.00000000     0.00000000
 N      1   2   0     2.462068993133   118.79100908     0.00000000
 O      2   1   3     2.548836286658   111.59443543     1.39927321
 O      2   1   3     2.289405988497   124.07185148   181.30218665
 C      4   2   1     2.715890325865   115.97119986   177.15945588
 N      3   1   2     2.142478888349   176.18883694   259.16936256
 H      1   2   3     2.059008430535   120.63174074   182.24346450
 H      6   4   2     2.071284031150   105.78244143   180.27531918
 H      6   4   2     2.077828585709   110.40167489   299.80324070
 H      6   4   2     2.077480661324   110.57875625    60.68207864

------------------------------------------------------------------------------
                   ___                                                        
                  /   \      - P O W E R E D   B Y -                         
                 /     \                                                     
                 |  |  |   _    _      __       _____    __    __             
                 |  |  |  | |  | |    /  \     |  _  \  |  |  /  |          
                  \  \/   | |  | |   /    \    | | | |  |  | /  /          
                 / \  \   | |__| |  /  /\  \   | |_| |  |  |/  /          
                |  |  |   |  __  | /  /__\  \  |    /   |      \           
                |  |  |   | |  | | |   __   |  |    \   |  |\   \          
                \     /   | |  | | |  |  |  |  | |\  \  |  | \   \       
                 \___/    |_|  |_| |__|  |__|  |_| \__\ |__|  \__/        
                                                                              
                      - O R C A' S   B I G   F R I E N D -                    
                                      &                                       
                       - I N T E G R A L  F E E D E R -                       
                                                                              
 v1 FN, 2020, v2 2021                                                         
------------------------------------------------------------------------------


Reading SHARK input file diazo_c02.SHARKINP.tmp ... ok
----------------------
SHARK INTEGRAL PACKAGE
----------------------

Number of atoms                             ...     11
Number of basis functions                   ...    118
Number of shells                            ...     54
Maximum angular momentum                    ...      2
Integral batch strategy                     ... SHARK/LIBINT Hybrid
RI-J (if used) integral strategy            ... SPLIT-RIJ (Revised 2003 algorithm where possible)
Printlevel                                  ...      1
Contraction scheme used                     ... SEGMENTED contraction
Coulomb Range Separation                    ... NOT USED
Exchange Range Separation                   ... NOT USED
Finite Nucleus Model                        ... NOT USED
Auxiliary Coulomb fitting basis             ... AVAILABLE
   # of basis functions in Aux-J            ...    387
   # of shells in Aux-J                     ...    125
   Maximum angular momentum in Aux-J        ...      4
Auxiliary J/K fitting basis                 ... NOT available
Auxiliary Correlation fitting basis         ... NOT available
Auxiliary 'external' fitting basis          ... NOT available
Integral threshold                          ...     2.500000e-11
Primitive cut-off                           ...     2.500000e-12
Primitive pair pre-selection threshold      ...     2.500000e-12

Calculating pre-screening integrals         ... done (  0.0 sec) Dimension = 54
Organizing shell pair data                  ... done (  0.0 sec)
Shell pair information
Total number of shell pairs                 ...      1485
Shell pairs after pre-screening             ...      1394
Total number of primitive shell pairs       ...      5563
Primitive shell pairs kept                  ...      3872
          la=0 lb=0:    405 shell pairs
          la=1 lb=0:    494 shell pairs
          la=1 lb=1:    164 shell pairs
          la=2 lb=0:    186 shell pairs
          la=2 lb=1:    119 shell pairs
          la=2 lb=2:     26 shell pairs

Calculating one electron integrals          ... done (  0.0 sec)
Calculating RI/J V-Matrix + Cholesky decomp.... done (  0.0 sec)
Calculating Nuclear repulsion               ... done (  0.0 sec) ENN=    281.692480135702 Eh

SHARK setup successfully completed in   0.1 seconds

Maximum memory used throughout the entire GTOINT-calculation: 14.0 MB

Diagonalization of the overlap matrix:
Smallest eigenvalue                        ... 2.624e-03
Time for diagonalization                   ...    0.002 sec
Threshold for overlap eigenvalues          ... 1.000e-08
Number of eigenvalues below threshold      ... 0
Time for construction of square roots      ...    0.002 sec
Total time needed                          ...    0.004 sec

-------------------
DFT GRID GENERATION
-------------------

General Integration Accuracy     IntAcc      ... 4.388
Radial Grid Type                 RadialGrid  ... OptM3 with GC (2021)
Angular Grid (max. ang.)         AngularGrid ... 4 (Lebedev-302)
Angular grid pruning method      GridPruning ... 4 (adaptive)
Weight generation scheme         WeightScheme... Becke
Basis function cutoff            BFCut       ... 1.0000e-11
Integration weight cutoff        WCut        ... 1.0000e-14
Angular grids for H and He will be reduced by one unit
Partially contracted basis set               ... off
Rotationally invariant grid construction     ... off

Total number of grid points                  ...    55510
Total number of batches                      ...      873
Average number of points per batch           ...       63
Average number of grid points per atom       ...     5046
Time for grid setup =    0.483 sec

--------------------
COSX GRID GENERATION
--------------------

GRIDX 1
-------
General Integration Accuracy     IntAcc      ... 3.816
Radial Grid Type                 RadialGrid  ... OptM3 with GC (2021)
Angular Grid (max. ang.)         AngularGrid ... 1 (Lebedev-50)
Angular grid pruning method      GridPruning ... 4 (adaptive)
Weight generation scheme         WeightScheme... Becke
Basis function cutoff            BFCut       ... 1.0000e-11
Integration weight cutoff        WCut        ... 1.0000e-14
Angular grids for H and He will be reduced by one unit
Partially contracted basis set               ... on
Rotationally invariant grid construction     ... off

Total number of grid points                  ...     7072
Total number of batches                      ...      117
Average number of points per batch           ...       60
Average number of grid points per atom       ...      643
UseSFitting                                  ... on

GRIDX 2
-------
General Integration Accuracy     IntAcc      ... 4.020
Radial Grid Type                 RadialGrid  ... OptM3 with GC (2021)
Angular Grid (max. ang.)         AngularGrid ... 2 (Lebedev-110)
Angular grid pruning method      GridPruning ... 4 (adaptive)
Weight generation scheme         WeightScheme... Becke
Basis function cutoff            BFCut       ... 1.0000e-11
Integration weight cutoff        WCut        ... 1.0000e-14
Angular grids for H and He will be reduced by one unit
Partially contracted basis set               ... on
Rotationally invariant grid construction     ... off

Total number of grid points                  ...    15965
Total number of batches                      ...      257
Average number of points per batch           ...       62
Average number of grid points per atom       ...     1451
UseSFitting                                  ... on

GRIDX 3
-------
General Integration Accuracy     IntAcc      ... 4.338
Radial Grid Type                 RadialGrid  ... OptM3 with GC (2021)
Angular Grid (max. ang.)         AngularGrid ... 3 (Lebedev-194)
Angular grid pruning method      GridPruning ... 4 (adaptive)
Weight generation scheme         WeightScheme... Becke
Basis function cutoff            BFCut       ... 1.0000e-11
Integration weight cutoff        WCut        ... 1.0000e-14
Angular grids for H and He will be reduced by one unit
Partially contracted basis set               ... on
Rotationally invariant grid construction     ... off

Total number of grid points                  ...    35262
Total number of batches                      ...      556
Average number of points per batch           ...       63
Average number of grid points per atom       ...     3206
UseSFitting                                  ... on

Time for X-Grid setup             =    0.583 sec


--------------------
CPCM SOLVATION MODEL
--------------------
CPCM parameters:
  Epsilon                                         ...       9.0800
  Refrac                                          ...       1.4240
  Rsolv                                           ...       1.3000
  Surface type                                    ... GAUSSIAN VDW
  Epsilon function type                           ...         CPCM
Radii:
 Radius for C  used is    3.8550 Bohr (=   2.0400 Ang.)
 Radius for N  used is    3.5149 Bohr (=   1.8600 Ang.)
 Radius for O  used is    3.4469 Bohr (=   1.8240 Ang.)
 Radius for H  used is    2.4944 Bohr (=   1.3200 Ang.)
Calculating surface                               ...        done! (  0.0s)
GEPOL surface points                              ...          703
GEPOL Volume                                      ...     806.0230
GEPOL Surface-area                                ...     496.4671
Calculating surface distance matrix               ...        done! (  0.0s)
Performing Cholesky decomposition & store         ...        done! (  0.0s)
Overall time for CPCM initialization              ...                 0.0s
--------------
SCF ITERATIONS
--------------
ITER       Energy         Delta-E        Max-DP      RMS-DP      [F,P]     Damp
               ***  Starting incremental Fock matrix formation  ***
  0   -376.1559028884   0.000000000000 0.00685560  0.00026272  0.0239587 0.7000
                      *** Initiating the SOSCF procedure ***
                      *** Re-Reading the Fockian *** 
                      *** Removing any level shift *** 
ITER      Energy       Delta-E        Grad      Rot      Max-DP    RMS-DP
  1   -376.15708825  -0.0011853662  0.001950  0.001950  0.017594  0.000774
               *** Restarting incremental Fock matrix formation ***
  2   -376.16009804  -0.0030097830  0.002639  0.012566  0.009467  0.000322
  3   -376.16012759  -0.0000295494  0.003174  0.005308  0.004957  0.000167
  4   -376.16025541  -0.0001278222  0.000622  0.001088  0.002384  0.000081
  5   -376.16025128   0.0000041334  0.000903  0.000816  0.001885  0.000043
  6   -376.16026322  -0.0000119433  0.000355  0.000472  0.001211  0.000036
  7   -376.16026263   0.0000005856  0.000290  0.000343  0.000624  0.000021
  8   -376.16026475  -0.0000021197  0.000072  0.000162  0.000396  0.000012
  9   -376.16026457   0.0000001879  0.000113  0.000106  0.000269  0.000008
 10   -376.16026490  -0.0000003356  0.000009  0.000015  0.000052  0.000001
 11   -376.16026490   0.0000000007  0.000013  0.000008  0.000022  0.000001
                  ***Gradient check signals convergence***
              ***Rediagonalizing the Fockian in SOSCF/NRSCF***

               *****************************************************
               *                     SUCCESS                       *
               *           SCF CONVERGED AFTER  12 CYCLES          *
               *****************************************************

Old exchange energy                            =     -9.290236315 Eh
New exchange energy                            =     -9.290249548 Eh
Exchange energy change after final integration =     -0.000013233 Eh
Total energy after final integration           =   -376.160278136 Eh
Final COS-X integration done in                =     3.815 sec
Total Energy       :         -376.16027814 Eh          -10235.84155 eV
  Last Energy change         ...   -2.3462e-09  Tolerance :   1.0000e-08
  Last MAX-Density change    ...    3.1086e-15  Tolerance :   1.0000e-07
             **** THE GBW FILE WAS UPDATED (diazo_c02.gbw) ****
[...]
     23      -0.173000   0.000588  -0.099847  -0.502732  -0.024219  -0.060746
     24      -0.011941  -0.246500   0.021154  -0.016330   0.086482   0.218459
     25       0.046506   0.454009  -0.085811   0.071144  -0.475134   0.100140
     26      -0.292547   0.078130   0.560788  -0.490701  -0.060105  -0.001732
     27       0.010749   0.024025   0.250328  -0.341818  -0.394011   0.360727
     28      -0.509338   0.337579   0.460253  -0.007277  -0.265870   0.040378
     29       0.342751   0.047892  -0.216897  -0.195721  -0.019183  -0.016537
     30       0.021480   0.026772  -0.264843   0.319066  -0.411359   0.368982
     31       0.379213   0.335506  -0.371972   0.064436  -0.279934   0.046481
     32       0.482640   0.050189  -0.329082  -0.208687  -0.041531   0.006283
                 12         13         14         15         16         17    
      0      -0.003997  -0.165948   0.012569   0.358902   0.016176   0.183133
      1       0.016515   0.155836  -0.046973   0.018048  -0.038057   0.032203
      2      -0.115431   0.023052   0.313898  -0.014681   0.254660  -0.002220
      3      -0.002911  -0.046778   0.001429   0.195770  -0.026680   0.035947
      4       0.011836  -0.186253  -0.005823  -0.111804   0.106621   0.159007
      5      -0.073615  -0.029548   0.036672  -0.018082  -0.733128   0.022254
      6       0.003126  -0.439625  -0.027846  -0.207191  -0.002752  -0.011445
      7      -0.002989   0.270251   0.100818   0.048478  -0.002030  -0.044402
      8       0.011037   0.059804  -0.663421   0.015612   0.018811  -0.006341
      9       0.001967  -0.063376   0.000077  -0.010783   0.007058  -0.075585
     10      -0.005118  -0.269870  -0.000534   0.109617  -0.022961  -0.318414
     11       0.042813  -0.035268   0.001989   0.014832   0.167266  -0.044101
     12      -0.001082   0.404838  -0.000811  -0.117667   0.006815   0.049980
     13      -0.002058  -0.195102   0.004167  -0.165037  -0.034827   0.224519
     14       0.020755  -0.044272  -0.031681  -0.021455   0.219729   0.030987
     15      -0.000359   0.090170   0.000590  -0.204324  -0.002758  -0.185452
     16      -0.000421  -0.029928  -0.001101   0.077423  -0.000762   0.024759
     17       0.003878  -0.008069   0.007276   0.019934   0.012596   0.011426
     18      -0.000664   0.137482   0.014365   0.065458   0.000426   0.006208
     19      -0.002336   0.289011  -0.052311   0.056736   0.003257  -0.056357
     20       0.006306   0.037809   0.346930   0.006058  -0.014516  -0.008728
     21       0.041180  -0.155414   0.022369   0.539732  -0.012168   0.351328
     22      -0.147259   0.114970  -0.083048  -0.327159   0.069864  -0.277550
     23       0.976409   0.065790   0.559937  -0.064794  -0.501402  -0.056307
     24       0.000272  -0.142991   0.000653  -0.005096  -0.002429  -0.562018
     25       0.000602   0.191263  -0.002743  -0.114790   0.009979   0.377588
     26      -0.009685   0.035360   0.020287  -0.015886  -0.079660   0.079286
     27      -0.026589   0.265414   0.017841  -0.346874  -0.138616   0.139978
     28       0.009448   0.014546  -0.006286   0.023179   0.055616   0.114596
     29      -0.002884  -0.016196   0.011174   0.034020  -0.022382  -0.010781
     30       0.023450   0.272176  -0.015706  -0.354135   0.123381   0.149185
     31      -0.007712   0.006892   0.002587   0.030982  -0.043200   0.102373
     32      -0.007399  -0.005355   0.013818   0.003535  -0.047449   0.030482
                 18         19         20         21         22         23    
      0      -0.242396  -0.000779   0.090702   0.009287  -0.118610  -0.167716
      1      -0.048970  -0.000448   0.154761   0.018117  -0.116153   0.366923
      2       0.002371   0.001141   0.019547   0.002361  -0.012801   0.061997
      3       0.111108   0.001423  -0.016685  -0.027608   0.441092   0.120913
      4      -0.025956  -0.000615  -0.010795   0.012086   0.043947   0.012300
      5      -0.008302   0.005403  -0.000969   0.002759  -0.011578  -0.003170
      6       0.031265   0.000192  -0.070433   0.006972   0.008751   0.048385
      7       0.017108   0.000193  -0.064167  -0.004470   0.011148  -0.066154
      8       0.001265  -0.000874  -0.006658  -0.000977   0.001296  -0.012012
      9       0.423478  -0.002708   0.007253  -0.062781  -0.171508   0.001336
     10      -0.150134   0.008717  -0.004613  -0.092170  -0.045744   0.010921
     11      -0.039294  -0.063102  -0.001042  -0.010643   0.000830   0.001654
     12      -0.018544  -0.000311   0.009696   0.013787  -0.057065   0.002784
     13      -0.033858   0.000554   0.002134   0.032861   0.021223  -0.090682
     14      -0.004214  -0.003690  -0.000085   0.004306   0.005467  -0.013476
     15      -0.342923   0.005975   0.002048   0.093150   0.078991   0.030601
     16       0.240690  -0.019854   0.013889   0.124828  -0.042918  -0.034463
     17       0.048948   0.138590   0.002194   0.014083  -0.010793  -0.006608
     18      -0.010381  -0.000044   0.007015  -0.001069  -0.003340  -0.013920
     19       0.028714   0.000253  -0.130232  -0.004467   0.062916  -0.119920
     20       0.004790   0.000130  -0.020028  -0.000596   0.009707  -0.017557
     21      -0.412432  -0.000654  -0.276103   0.092747  -0.450230   0.333115
     22       0.247715  -0.001291   0.913451  -0.143937   0.508834  -0.647034
     23       0.053903   0.007505   0.149421  -0.025551   0.094748  -0.111074
     24       0.059426  -0.004492   0.053951   0.588288  -0.206349  -0.247086
     25      -0.126149   0.046439  -0.034221  -0.340649   0.199834   0.217196
     26      -0.019231  -0.322911  -0.007655  -0.071988   0.042602   0.043471
     27      -0.347703  -0.535407  -0.035900  -0.426391  -0.285407  -0.222066
     28       0.077305   0.381258  -0.011346  -0.174315   0.017491   0.103053
     29       0.106631  -0.094680   0.011030   0.123148  -0.045605  -0.082747
     30      -0.366060   0.507555  -0.036073  -0.450686  -0.289118  -0.215229
     31       0.109532  -0.330502  -0.008162  -0.122864   0.005625   0.070355
     32      -0.047466  -0.248829  -0.011609  -0.132003   0.074510   0.126649
                 24         25         26         27         28         29    
      0       0.001735   0.018545   0.036149  -0.042411  -0.027105   0.000317
      1      -0.001945  -0.021385  -0.044794   0.088145  -0.122593  -0.000175
      2      -0.000955  -0.003924  -0.008194   0.014847  -0.017340  -0.000039
      3      -0.004218  -0.044922  -0.077928   0.058794   0.050063  -0.002651
      4       0.000697   0.008202   0.005906  -0.780060  -0.064492  -0.002263
      5       0.000804   0.002975   0.004135  -0.117565  -0.011663  -0.000228
      6      -0.000360  -0.003781  -0.007342  -0.006666   0.024096  -0.000028
      7       0.000491   0.005057   0.008570  -0.046117   0.744953   0.000503
      8       0.000121   0.000927   0.001609  -0.006764   0.111836   0.000079
      9       0.004160   0.037308   0.041422   0.024548  -0.014827   0.002825
     10      -0.000206   0.016335  -0.012269   0.059579  -0.002119  -0.000203
     11       0.013284  -0.000522  -0.003521   0.007756   0.000290  -0.000139
     12       0.000111   0.001391   0.007859  -0.025151  -0.007151   0.000010
     13      -0.001077  -0.010878   0.001107   0.486370   0.034401   0.000979
     14      -0.000430  -0.001610  -0.000186   0.072747   0.005381   0.000145
     15       0.007397   0.055460   0.068906   0.018166   0.003705   0.032845
     16      -0.005561   0.020949  -0.052370  -0.020654  -0.002866  -0.031431
     17       0.050890  -0.004788  -0.010458  -0.003709  -0.000551  -0.006652
     18       0.000111   0.001074   0.002088   0.000952  -0.021125  -0.000009
     19       0.000400   0.004264   0.011336   0.040397  -0.607631  -0.000294
     20       0.000077   0.000615   0.001615   0.006149  -0.091266  -0.000045
     21      -0.000299  -0.002445  -0.009076   0.064516   0.020694   0.001773
     22       0.002451   0.024311   0.052840  -0.179502  -0.166782  -0.000132
     23       0.000067   0.003762   0.008356  -0.029309  -0.026306  -0.000093
     24      -0.073093  -0.440202  -0.163572  -0.155421  -0.005420  -0.300303
     25       0.160046   0.455950   0.174745   0.141475   0.011233  -0.316076
     26      -0.691585   0.170630   0.027744   0.028342   0.002015  -0.038820
     27       0.422122  -0.282273  -0.438975  -0.118298  -0.013168  -0.035865
     28       0.155204  -0.455763   0.436723  -0.023083   0.000647   0.273113
     29      -0.016806   0.196327  -0.273152  -0.034020  -0.008751   0.575914
     30      -0.471612  -0.198238  -0.420804  -0.113492  -0.012253  -0.073669
     31      -0.228596  -0.333169   0.323632  -0.033970  -0.002286   0.431454
     32      -0.103041  -0.289954   0.424065   0.033947   0.009348  -0.455124
                 30         31         32    
      0      -0.000009   0.000059  -0.078424
      1       0.000027   0.000177  -0.037641
      2      -0.000193   0.000025  -0.002415
      3       0.000031   0.000924   0.002425
      4      -0.000037  -0.000678  -0.001768
      5       0.000351  -0.000151  -0.000355
      6      -0.000001  -0.000025   0.000767
      7       0.000006  -0.000104  -0.000684
      8      -0.000035  -0.000014  -0.000134
      9       0.000015   0.000242   0.000668
     10      -0.000070   0.000423   0.000104
     11       0.000469   0.000062  -0.000012
     12       0.000013  -0.000197  -0.000127
     13      -0.000023   0.000286   0.000216
     14       0.000110   0.000050   0.000036
     15      -0.003980  -0.047620  -0.000148
     16       0.014583  -0.081890  -0.000031
     17      -0.094397  -0.010594   0.000002
     18       0.000001   0.000007  -0.000457
     19      -0.000004   0.000079   0.002440
     20       0.000022   0.000012   0.000389
     21       0.000007  -0.000973   0.893285
     22       0.000006  -0.000543   0.440005
     23       0.000015  -0.000041   0.029056
     24       0.004515   0.614933   0.000995
     25       0.007460   0.652609   0.001126
     26      -0.013209   0.080028   0.000139
     27      -0.034360  -0.019775   0.000074
     28       0.312684   0.117974  -0.000285
     29       0.627661   0.271246  -0.000392
     30       0.076565  -0.038937   0.000095
     31      -0.492352   0.200799  -0.000366
     32       0.499427  -0.225271   0.000259


-----------
IR SPECTRUM
-----------

 Mode   freq       eps      Int      T**2         TX        TY        TZ
       cm**-1   L/(mol*cm) km/mol    a.u.
----------------------------------------------------------------------------
  6:    102.06   0.000007    0.03  0.000020  (-0.000350 -0.000218  0.004453)
  7:    131.74   0.000334    1.69  0.000792  (-0.022957  0.016003  0.002994)
  8:    138.22   0.000192    0.97  0.000433  ( 0.000645  0.002673 -0.020626)
  9:    173.16   0.003044   15.38  0.005486  (-0.003201  0.010938 -0.073189)
 10:    294.24   0.004470   22.59  0.004741  (-0.063167 -0.027362 -0.001377)
 11:    402.49   0.002694   13.61  0.002089  ( 0.038837 -0.023585 -0.004917)
 12:    508.59   0.009404   47.52  0.005770  ( 0.003087 -0.011087  0.075085)
 13:    538.94   0.000277    1.40  0.000160  (-0.006929  0.010189  0.002900)
 14:    572.70   0.000591    2.99  0.000322  (-0.000903  0.002906 -0.017684)
 15:    728.60   0.001904    9.62  0.000815  ( 0.028536  0.001025 -0.000063)
 16:    747.29   0.012517   63.26  0.005227  (-0.002537  0.010651 -0.071464)
 17:    873.95   0.002940   14.86  0.001050  ( 0.013015  0.029432  0.003773)
 18:   1089.13   0.020031  101.23  0.005739  (-0.073655  0.016794  0.005686)
 19:   1166.79   0.000291    1.47  0.000078  ( 0.001371 -0.001648  0.008556)
 20:   1176.17   0.000651    3.29  0.000173  (-0.004190 -0.012348 -0.001610)
 21:   1199.02   0.003298   16.67  0.000858  ( 0.029262  0.000747 -0.001257)
 22:   1273.72   0.122040  616.74  0.029900  ( 0.167606 -0.040463 -0.013080)
 23:   1395.94   0.046944  237.24  0.010494  ( 0.068119 -0.075174 -0.014251)
 24:   1445.39   0.002601   13.14  0.000562  (-0.005905  0.004605 -0.022482)
 25:   1452.16   0.010246   51.78  0.002202  (-0.044292  0.014097  0.006431)
 26:   1469.83   0.012856   64.97  0.002729  (-0.027413  0.043863  0.007349)
 27:   1775.60   0.185642  938.16  0.032627  ( 0.008931 -0.178418 -0.026721)
 28:   2259.97   0.165491  836.32  0.022851  (-0.027377  0.146833  0.023283)
 29:   3043.04   0.007184   36.31  0.000737  ( 0.024690 -0.010886 -0.002943)
 30:   3131.91   0.004539   22.94  0.000452  (-0.000932  0.003123 -0.021016)
 31:   3172.28   0.002242   11.33  0.000221  (-0.008574 -0.012034 -0.001483)
 32:   3242.18   0.006681   33.76  0.000643  ( 0.020643  0.014664  0.001357)

* The epsilon (eps) is given for a Dirac delta lineshape.
** The dipole moment derivative (T) already includes vibrational overlap.

The first frequency considered to be a vibration is 6
The total number of vibrations considered is 27


--------------------------
THERMOCHEMISTRY AT 298.15K
--------------------------

Temperature         ... 298.15 K
Pressure            ... 1.00 atm
Total Mass          ... 100.08 AMU

Throughout the following assumptions are being made:
  (1) The electronic state is orbitally nondegenerate
  (2) There are no thermally accessible electronically excited states
  (3) Hindered rotations indicated by low frequency modes are not
      treated as such but are treated as vibrations and this may
      cause some error
  (4) All equations used are the standard statistical mechanics
      equations for an ideal gas
  (5) All vibrations are strictly harmonic

freq.     102.06  E(vib)   ...       0.46 
freq.     131.74  E(vib)   ...       0.42 
freq.     138.22  E(vib)   ...       0.42 
freq.     173.16  E(vib)   ...       0.38 
freq.     294.24  E(vib)   ...       0.27 
freq.     402.49  E(vib)   ...       0.19 
freq.     508.59  E(vib)   ...       0.14 
freq.     538.94  E(vib)   ...       0.12 
freq.     572.70  E(vib)   ...       0.11 
freq.     728.60  E(vib)   ...       0.06 
freq.     747.29  E(vib)   ...       0.06 
freq.     873.95  E(vib)   ...       0.04 
freq.    1089.13  E(vib)   ...       0.02 
freq.    1166.79  E(vib)   ...       0.01 
freq.    1176.17  E(vib)   ...       0.01 
freq.    1199.02  E(vib)   ...       0.01 
freq.    1273.72  E(vib)   ...       0.01 
freq.    1395.94  E(vib)   ...       0.00 
freq.    1445.39  E(vib)   ...       0.00 
freq.    1452.16  E(vib)   ...       0.00 
freq.    1469.83  E(vib)   ...       0.00 
freq.    1775.60  E(vib)   ...       0.00 
freq.    2259.97  E(vib)   ...       0.00 
freq.    3043.04  E(vib)   ...       0.00 
freq.    3131.91  E(vib)   ...       0.00 
freq.    3172.28  E(vib)   ...       0.00 
freq.    3242.18  E(vib)   ...       0.00 

------------
INNER ENERGY
------------

The inner energy is: U= E(el) + E(ZPE) + E(vib) + E(rot) + E(trans)
    E(el)   - is the total energy from the electronic structure calculation
              = E(kin-el) + E(nuc-el) + E(el-el) + E(nuc-nuc)
    E(ZPE)  - the the zero temperature vibrational energy from the frequency calculation
    E(vib)  - the the finite temperature correction to E(ZPE) due to population
              of excited vibrational states
    E(rot)  - is the rotational thermal energy
    E(trans)- is the translational thermal energy

Summary of contributions to the inner energy U:
Electronic energy                ...   -376.17505547 Eh
Zero point energy                ...      0.07633023 Eh      47.90 kcal/mol
Thermal vibrational correction   ...      0.00437545 Eh       2.75 kcal/mol
Thermal rotational correction    ...      0.00141627 Eh       0.89 kcal/mol
Thermal translational correction ...      0.00141627 Eh       0.89 kcal/mol
-----------------------------------------------------------------------
Total thermal energy                   -376.09151724 Eh


Summary of corrections to the electronic energy:
(perhaps to be used in another calculation)
Total thermal correction                  0.00720800 Eh       4.52 kcal/mol
Non-thermal (ZPE) correction              0.07633023 Eh      47.90 kcal/mol
-----------------------------------------------------------------------
Total correction                          0.08353823 Eh      52.42 kcal/mol


--------
ENTHALPY
--------

The enthalpy is H = U + kB*T
                kB is Boltzmann's constant
Total free energy                 ...   -376.09151724 Eh 
Thermal Enthalpy correction       ...      0.00094421 Eh       0.59 kcal/mol
-----------------------------------------------------------------------
Total Enthalpy                    ...   -376.09057304 Eh


Note: Only C1 symmetry has been detected, increase convergence thresholds 
      if your molecule has a higher symmetry. Symmetry factor of 1.0 is   
      used for the rotational entropy correction. 
 

Note: Rotational entropy computed according to Herzberg 
Infrared and Raman Spectra, Chapter V,1, Van Nostrand Reinhold, 1945 
Point Group:  C1, Symmetry Number:   1  
Rotational constants in cm-1:     0.180277     0.063295     0.047272 

Vibrational entropy computed according to the QRRHO of S. Grimme
Chem.Eur.J. 2012 18 9955


-------
ENTROPY
-------

The entropy contributions are T*S = T*(S(el)+S(vib)+S(rot)+S(trans))
     S(el)   - electronic entropy
     S(vib)  - vibrational entropy
     S(rot)  - rotational entropy
     S(trans)- translational entropy
The entropies will be listed as multiplied by the temperature to get
units of energy

Electronic entropy                ...      0.00000000 Eh      0.00 kcal/mol
Vibrational entropy               ...      0.00770865 Eh      4.84 kcal/mol
Rotational entropy                ...      0.01306332 Eh      8.20 kcal/mol
Translational entropy             ...      0.01887233 Eh     11.84 kcal/mol
-----------------------------------------------------------------------
Final entropy term                ...      0.03964430 Eh     24.88 kcal/mol

In case the symmetry of your molecule has not been determined correctly
or in case you have a reason to use a different symmetry number we print 
out the resulting rotational entropy values for sn=1,12 :
 --------------------------------------------------------
|  sn= 1 | S(rot)=       0.01306332 Eh      8.20 kcal/mol|
|  sn= 2 | S(rot)=       0.01240886 Eh      7.79 kcal/mol|
|  sn= 3 | S(rot)=       0.01202603 Eh      7.55 kcal/mol|
|  sn= 4 | S(rot)=       0.01175440 Eh      7.38 kcal/mol|
|  sn= 5 | S(rot)=       0.01154372 Eh      7.24 kcal/mol|
|  sn= 6 | S(rot)=       0.01137157 Eh      7.14 kcal/mol|
|  sn= 7 | S(rot)=       0.01122603 Eh      7.04 kcal/mol|
|  sn= 8 | S(rot)=       0.01109995 Eh      6.97 kcal/mol|
|  sn= 9 | S(rot)=       0.01098874 Eh      6.90 kcal/mol|
|  sn=10 | S(rot)=       0.01088926 Eh      6.83 kcal/mol|
|  sn=11 | S(rot)=       0.01079927 Eh      6.78 kcal/mol|
|  sn=12 | S(rot)=       0.01071712 Eh      6.73 kcal/mol|
 --------------------------------------------------------


-------------------
GIBBS FREE ENERGY
-------------------

The Gibbs free energy is G = H - T*S

Total enthalpy                    ...   -376.09057304 Eh 
Total entropy correction          ...     -0.03964430 Eh    -24.88 kcal/mol
-----------------------------------------------------------------------
Final Gibbs free energy         ...   -376.13021733 Eh

For completeness - the Gibbs free energy minus the electronic energy
G-E(el)                           ...      0.04483814 Eh     28.14 kcal/mol


Timings for individual modules:

Sum of individual times         ...      993.151 sec (=  16.553 min)
GTO integral calculation        ...        4.946 sec (=   0.082 min)   0.5 %
SCF iterations                  ...      507.507 sec (=   8.458 min)  51.1 %
SCF Gradient evaluation         ...      174.776 sec (=   2.913 min)  17.6 %
Geometry relaxation             ...        2.381 sec (=   0.040 min)   0.2 %
Analytical frequency calculation...      303.541 sec (=   5.059 min)  30.6 %
                             ****ORCA TERMINATED NORMALLY****
TOTAL RUN TIME: 0 days 0 hours 16 minutes 39 seconds 65 msec
