
                                 *****************
                                 * O   R   C   A *
                                 *****************

                                            #,                                       
                                            ###                                      
                                            ####                                     
                                            #####                                    
                                            ######                                   
                                           ########,                                 
                                     ,,################,,,,,                         
                               ,,#################################,,                 
                          ,,##########################################,,             
                       ,#########################################, ''#####,          
                    ,#############################################,,   '####,        
                  ,##################################################,,,,####,       
                ,###########''''           ''''###############################       
              ,#####''   ,,,,##########,,,,          '''####'''          '####       
            ,##' ,,,,###########################,,,                        '##       
           ' ,,###''''                  '''############,,,                           
         ,,##''                                '''############,,,,        ,,,,,,###''
      ,#''                                            '''#######################'''  
     '                                                          ''''####''''         
             ,#######,   #######,   ,#######,      ##                                
            ,#'     '#,  ##    ##  ,#'     '#,    #''#        ######   ,####,        
            ##       ##  ##   ,#'  ##            #'  '#       #        #'  '#        
            ##       ##  #######   ##           ,######,      #####,   #    #        
            '#,     ,#'  ##    ##  '#,     ,#' ,#      #,         ##   #,  ,#        
             '#######'   ##     ##  '#######'  #'      '#     #####' # '####'        



                  #######################################################
                  #                        -***-                        #
                  #          Department of theory and spectroscopy      #
                  #    Directorship and core code : Frank Neese         #
                  #        Max Planck Institute fuer Kohlenforschung    #
                  #                Kaiser Wilhelm Platz 1               #
                  #                 D-45470 Muelheim/Ruhr               #
                  #                      Germany                        #
                  #                                                     #
                  #                  All rights reserved                #
                  #                        -***-                        #
                  #######################################################


                         Program Version 5.0.3 -  RELEASE  -


 With contributions from (in alphabetic order):
   Daniel Aravena         : Magnetic Suceptibility
   Michael Atanasov       : Ab Initio Ligand Field Theory (pilot matlab implementation)
   Alexander A. Auer      : GIAO ZORA, VPT2 properties, NMR spectrum
   Ute Becker             : Parallelization
   Giovanni Bistoni       : ED, misc. LED, open-shell LED, HFLD
   Martin Brehm           : Molecular dynamics
   Dmytro Bykov           : SCF Hessian
   Vijay G. Chilkuri      : MRCI spin determinant printing, contributions to CSF-ICE
   Dipayan Datta          : RHF DLPNO-CCSD density
   Achintya Kumar Dutta   : EOM-CC, STEOM-CC
   Dmitry Ganyushin       : Spin-Orbit,Spin-Spin,Magnetic field MRCI
   Miquel Garcia          : C-PCM and meta-GGA Hessian, CC/C-PCM, Gaussian charge scheme
   Yang Guo               : DLPNO-NEVPT2, F12-NEVPT2, CIM, IAO-localization
   Andreas Hansen         : Spin unrestricted coupled pair/coupled cluster methods
   Benjamin Helmich-Paris : MC-RPA, TRAH-SCF, COSX integrals
   Lee Huntington         : MR-EOM, pCC
   Robert Izsak           : Overlap fitted RIJCOSX, COSX-SCS-MP3, EOM
   Marcus Kettner         : VPT2
   Christian Kollmar      : KDIIS, OOCD, Brueckner-CCSD(T), CCSD density, CASPT2, CASPT2-K
   Simone Kossmann        : Meta GGA functionals, TD-DFT gradient, OOMP2, MP2 Hessian
   Martin Krupicka        : Initial AUTO-CI
   Lucas Lang             : DCDCAS
   Marvin Lechner         : AUTO-CI (C++ implementation), FIC-MRCC
   Dagmar Lenk            : GEPOL surface, SMD
   Dimitrios Liakos       : Extrapolation schemes; Compound Job, initial MDCI parallelization
   Dimitrios Manganas     : Further ROCIS development; embedding schemes
   Dimitrios Pantazis     : SARC Basis sets
   Anastasios Papadopoulos: AUTO-CI, single reference methods and gradients
   Taras Petrenko         : DFT Hessian,TD-DFT gradient, ASA, ECA, R-Raman, ABS, FL, XAS/XES, NRVS
   Peter Pinski           : DLPNO-MP2, DLPNO-MP2 Gradient
   Christoph Reimann      : Effective Core Potentials
   Marius Retegan         : Local ZFS, SOC
   Christoph Riplinger    : Optimizer, TS searches, QM/MM, DLPNO-CCSD(T), (RO)-DLPNO pert. Triples
   Tobias Risthaus        : Range-separated hybrids, TD-DFT gradient, RPA, STAB
   Michael Roemelt        : Original ROCIS implementation
   Masaaki Saitow         : Open-shell DLPNO-CCSD energy and density
   Barbara Sandhoefer     : DKH picture change effects
   Avijit Sen             : IP-ROCIS
   Kantharuban Sivalingam : CASSCF convergence, NEVPT2, FIC-MRCI
   Bernardo de Souza      : ESD, SOC TD-DFT
   Georgi Stoychev        : AutoAux, RI-MP2 NMR, DLPNO-MP2 response
   Willem Van den Heuvel  : Paramagnetic NMR
   Boris Wezisla          : Elementary symmetry handling
   Frank Wennmohs         : Technical directorship


 We gratefully acknowledge several colleagues who have allowed us to
 interface, adapt or use parts of their codes:
   Stefan Grimme, W. Hujo, H. Kruse, P. Pracht,  : VdW corrections, initial TS optimization,
                  C. Bannwarth, S. Ehlert          DFT functionals, gCP, sTDA/sTD-DF
   Ed Valeev, F. Pavosevic, A. Kumar             : LibInt (2-el integral package), F12 methods
   Garnet Chan, S. Sharma, J. Yang, R. Olivares  : DMRG
   Ulf Ekstrom                                   : XCFun DFT Library
   Mihaly Kallay                                 : mrcc  (arbitrary order and MRCC methods)
   Jiri Pittner, Ondrej Demel                    : Mk-CCSD
   Frank Weinhold                                : gennbo (NPA and NBO analysis)
   Christopher J. Cramer and Donald G. Truhlar   : smd solvation model
   Lars Goerigk                                  : TD-DFT with DH, B97 family of functionals
   V. Asgeirsson, H. Jonsson                     : NEB implementation
   FAccTs GmbH                                   : IRC, NEB, NEB-TS, DLPNO-Multilevel, CI-OPT
                                                   MM, QMMM, 2- and 3-layer-ONIOM, Crystal-QMMM,
                                                   LR-CPCM, SF, NACMEs, symmetry and pop. for TD-DFT,
                                                   nearIR, NL-DFT gradient (VV10), updates on ESD,
                                                   ML-optimized integration grids
   S Lehtola, MJT Oliveira, MAL Marques          : LibXC Library
   Liviu Ungur et al                             : ANISO software


 Your calculation uses the libint2 library for the computation of 2-el integrals
 For citations please refer to: http://libint.valeyev.net

 Your ORCA version has been built with support for libXC version: 5.1.0
 For citations please refer to: https://tddft.org/programs/libxc/

 This ORCA versions uses:
   CBLAS   interface :  Fast vector & matrix operations
   LAPACKE interface :  Fast linear algebra routines
   SCALAPACK package :  Parallel linear algebra routines
   Shared memory     :  Shared parallel matrices


Your calculation utilizes the atom-pairwise dispersion correction
with the Becke-Johnson damping scheme (D3BJ)
Cite in your paper:
S.Grimme, S.Ehrlich, L.Goerigk, J Comput Chem, (2011), 32, 1456–1465 
S.Grimme, J.Antony, S.Ehrlich and H.Krieg, J.Chem.Phys., 132, (2010), 154104 
   

================================================================================

----- Orbital basis set information -----
Your calculation utilizes the basis: def2-TZVP
   F. Weigend and R. Ahlrichs, Phys. Chem. Chem. Phys. 7, 3297 (2005).

----- AuxJ basis set information -----
Your calculation utilizes the auxiliary basis: def2/J
   F. Weigend, Phys. Chem. Chem. Phys. 8, 1057 (2006).

================================================================================
                                        WARNINGS
                       Please study these warnings very carefully!
================================================================================

WARNING: Old DensityContainer found on disk!
         Will remove this file - 
         If you want to keep old densities, please start your calculation with a different basename. 


INFO   : the flag for use of the SHARK integral package has been found!

================================================================================
                                       INPUT FILE
================================================================================
NAME = diazo_c02_sp.inp
|  1> ! b3lyp d3bj def2-tzvp tightscf cpcm(CH2Cl2) printBasis
|  2> %MaxCore 1000
|  3> %pal nprocs 1 end
|  4> %scf print[p_mos] 1 end
|  5> 
|  6> *xyz 0 1
|  7> C     0.916410  -0.667518  -0.097726
|  8> C    -0.320523   0.087088   0.064176
|  9> N     0.884865  -1.960428  -0.291398
| 10> O    -1.411566  -0.700249  -0.006984
| 11> O    -0.360069   1.288195   0.242681
| 12> C    -2.677559  -0.049867   0.141975
| 13> N     0.845884  -3.079257  -0.459404
| 14> H     1.894938  -0.189320  -0.066503
| 15> H    -3.435304  -0.836861   0.046002
| 16> H    -2.753811   0.432689   1.128218
| 17> H    -2.819493   0.711219  -0.640200
| 18> *
| 19> 
| 20> 
| 21> 
| 22> 
| 23> 
| 24>                          ****END OF INPUT****
================================================================================

                       ****************************
                       * Single Point Calculation *
                       ****************************

---------------------------------
CARTESIAN COORDINATES (ANGSTROEM)
---------------------------------
  C      0.916410   -0.667518   -0.097726
  C     -0.320523    0.087088    0.064176
  N      0.884865   -1.960428   -0.291398
  O     -1.411566   -0.700249   -0.006984
  O     -0.360069    1.288195    0.242681
  C     -2.677559   -0.049867    0.141975
  N      0.845884   -3.079257   -0.459404
  H      1.894938   -0.189320   -0.066503
  H     -3.435304   -0.836861    0.046002
  H     -2.753811    0.432689    1.128218
  H     -2.819493    0.711219   -0.640200

----------------------------
CARTESIAN COORDINATES (A.U.)
----------------------------
  NO LB      ZA    FRAG     MASS         X           Y           Z
   0 C     6.0000    0    12.011    1.731764   -1.261426   -0.184675
   1 C     6.0000    0    12.011   -0.605701    0.164572    0.121275
   2 N     7.0000    0    14.007    1.672153   -3.704672   -0.550662
   3 O     8.0000    0    15.999   -2.667473   -1.323279   -0.013198
   4 O     8.0000    0    15.999   -0.680432    2.434336    0.458601
   5 C     6.0000    0    12.011   -5.059853   -0.094235    0.268294
   6 N     7.0000    0    14.007    1.598489   -5.818952   -0.868148
   7 H     1.0000    0     1.008    3.580914   -0.357763   -0.125672
   8 H     1.0000    0     1.008   -6.491784   -1.581438    0.086931
   9 H     1.0000    0     1.008   -5.203949    0.817664    2.132023
  10 H     1.0000    0     1.008   -5.328070    1.344009   -1.209803

--------------------------------
INTERNAL COORDINATES (ANGSTROEM)
--------------------------------
 C      0   0   0     0.000000000000     0.00000000     0.00000000
 C      1   0   0     1.457959436791     0.00000000     0.00000000
 N      1   2   0     1.307715641380   120.51059216     0.00000000
 O      2   1   3     1.347344842651   112.25281653     0.22960442
 O      2   1   3     1.214942775027   123.75297025   180.22952774
 C      4   2   1     1.431056884143   116.44213809   179.94640152
 N      3   1   2     1.132044109405   179.40855533     4.19604605
 H      1   2   3     1.089571131096   122.11336773   179.82989475
 H      6   4   2     1.096698617575   106.02131926   179.40926655
 H      6   4   2     1.100613426998   110.72150019   298.92024377
 H      6   4   2     1.100542997968   110.75720043    59.89478675

---------------------------
INTERNAL COORDINATES (A.U.)
---------------------------
 C      0   0   0     0.000000000000     0.00000000     0.00000000
 C      1   0   0     2.755144049902     0.00000000     0.00000000
 N      1   2   0     2.471224423253   120.51059216     0.00000000
 O      2   1   3     2.546112760561   112.25281653     0.22960442
 O      2   1   3     2.295909113187   123.75297025   180.22952774
 C      4   2   1     2.704305593094   116.44213809   179.94640152
 N      3   1   2     2.139253338294   179.40855533     4.19604605
 H      1   2   3     2.058991041198   122.11336773   179.82989475
 H      6   4   2     2.072460038666   106.02131926   179.40926655
 H      6   4   2     2.079857956343   110.72150019   298.92024377
 H      6   4   2     2.079724864765   110.75720043    59.89478675

---------------------
BASIS SET INFORMATION
---------------------
There are 4 groups of distinct atoms

 Group   1 Type C   : 11s6p2d1f contracted to 5s3p2d1f pattern {62111/411/11/1}
 Group   2 Type N   : 11s6p2d1f contracted to 5s3p2d1f pattern {62111/411/11/1}
 Group   3 Type O   : 11s6p2d1f contracted to 5s3p2d1f pattern {62111/411/11/1}
 Group   4 Type H   : 5s1p contracted to 3s1p pattern {311/1}

Atom   0C    basis set group =>   1
Atom   1C    basis set group =>   1
Atom   2N    basis set group =>   2
Atom   3O    basis set group =>   3
Atom   4O    basis set group =>   3
Atom   5C    basis set group =>   1
Atom   6N    basis set group =>   2
Atom   7H    basis set group =>   4
Atom   8H    basis set group =>   4
Atom   9H    basis set group =>   4
Atom  10H    basis set group =>   4

-------------------------
BASIS SET IN INPUT FORMAT
-------------------------

 # Basis set for element : H 
 NewGTO H 
 S 3 
   1      34.0613410000      0.0254393072
   2       5.1235746000      0.1900859489
   3       1.1646626000      0.8524411301
 S 1 
   1       0.3272304100      1.0000000000
 S 1 
   1       0.1030724100      1.0000000000
 P 1 
   1       0.8000000000      1.0000000000
  end;

 # Basis set for element : C 
 NewGTO C 
 S 6 
   1   13575.3496820000      0.0006064549
   2    2035.2333680000      0.0046979088
   3     463.2256235900      0.0243324776
   4     131.2001959800      0.0973999683
   5      42.8530158910      0.3019558425
   6      15.5841857660      0.6623360915
 S 2 
   1       6.2067138508      0.6559530854
   2       2.5764896527      0.3758563329
 S 1 
   1       0.5769633942      1.0000000000
 S 1 
   1       0.2297283136      1.0000000000
 S 1 
   1       0.0951644400      1.0000000000
 P 4 
   1      34.6972322440      0.0113272200
   2       7.9582622826      0.0761696592
   3       2.3780826883      0.3019225220
   4       0.8143320818      0.7278502735
 P 1 
   1       0.2888754725      1.0000000000
 P 1 
   1       0.1005682367      1.0000000000
 D 1 
   1       1.0970000000      1.0000000000
 D 1 
   1       0.3180000000      1.0000000000
 F 1 
   1       0.7610000000      1.0000000000
  end;

 # Basis set for element : N 
 NewGTO N 
 S 6 
   1   19730.8006470000      0.0005862639
   2    2957.8958745000      0.0045428821
   3     673.2213359500      0.0235584136
   4     190.6824949400      0.0947091933
   5      62.2954418980      0.2971978492
   6      22.6541611820      0.6691624689
 S 2 
   1       8.9791477428      0.6459668363
   2       3.6863002370      0.3870057440
 S 1 
   1       0.8466007680      1.0000000000
 S 1 
   1       0.3364713377      1.0000000000
 S 1 
   1       0.1364765367      1.0000000000
 P 4 
   1      49.2003805100      0.0114488252
   2      11.3467905370      0.0784223379
   3       3.4273972411      0.3081809474
   4       1.1785525134      0.7202719637
 P 1 
   1       0.4164220497      1.0000000000
 P 1 
   1       0.1426082601      1.0000000000
 D 1 
   1       1.6540000000      1.0000000000
 D 1 
   1       0.4690000000      1.0000000000
 F 1 
   1       1.0930000000      1.0000000000
  end;

 # Basis set for element : O 
 NewGTO O 
 S 6 
   1   27032.3826310000      0.0005722733
   2    4052.3871392000      0.0044353233
   3     922.3272271000      0.0230201076
   4     261.2407098900      0.0928224906
   5      85.3546413510      0.2937850002
   6      31.0350352450      0.6740160450
 S 2 
   1      12.2608607280      0.6383993702
   2       4.9987076005      0.3953458713
 S 1 
   1       1.1703108158      1.0000000000
 S 1 
   1       0.4647474099      1.0000000000
 S 1 
   1       0.1850453636      1.0000000000
 P 4 
   1      63.2749548010      0.0120183321
   2      14.6270493790      0.0830054217
   3       4.4501223456      0.3199174393
   4       1.5275799647      0.7071554292
 P 1 
   1       0.5293511794      1.0000000000
 P 1 
   1       0.1747842127      1.0000000000
 D 1 
   1       2.3140000000      1.0000000000
 D 1 
   1       0.6450000000      1.0000000000
 F 1 
   1       1.4280000000      1.0000000000
  end;

---------------------------------
AUXILIARY/J BASIS SET INFORMATION
---------------------------------
There are 4 groups of distinct atoms

 Group   1 Type C   : 12s5p4d2f1g contracted to 6s4p3d1f1g pattern {711111/2111/211/2/1}
 Group   2 Type N   : 12s5p4d2f1g contracted to 6s4p3d1f1g pattern {711111/2111/211/2/1}
 Group   3 Type O   : 12s5p4d2f1g contracted to 6s4p3d1f1g pattern {711111/2111/211/2/1}
 Group   4 Type H   : 5s2p1d contracted to 3s1p1d pattern {311/2/1}

Atom   0C    basis set group =>   1
Atom   1C    basis set group =>   1
Atom   2N    basis set group =>   2
Atom   3O    basis set group =>   3
Atom   4O    basis set group =>   3
Atom   5C    basis set group =>   1
Atom   6N    basis set group =>   2
Atom   7H    basis set group =>   4
Atom   8H    basis set group =>   4
Atom   9H    basis set group =>   4
Atom  10H    basis set group =>   4

-------------------------------------
AUXILIARY/J BASIS SET IN INPUT FORMAT
-------------------------------------

 # Auxiliary/J basis set for element : H 
 NewAuxJGTO H 
 S 3 
   1      15.6752927000      0.1007184237
   2       3.6063578000      0.3404257499
   3       1.2080016000      0.6491996172
 S 1 
   1       0.4726794000      1.0000000000
 S 1 
   1       0.2018100000      1.0000000000
 P 2 
   1       2.0281365000      0.5596620919
   2       0.5358730000      0.5596620919
 D 1 
   1       2.2165124000      1.0000000000
  end;

 # Auxiliary/J basis set for element : C 
 NewAuxJGTO C 
 S 7 
   1    1861.0916331000      0.0134602335
   2     642.9939764000      0.0299160374
   3     235.1105725000      0.1008649584
   4      90.7028894000      0.2370970548
   5      36.7794552000      0.3924037254
   6      15.6046273000      0.3195862154
   7       6.8907294000      0.0530104441
 S 1 
   1       3.1478850000     -1.0000000000
 S 1 
   1       1.4777287000      1.0000000000
 S 1 
   1       0.7076466000      1.0000000000
 S 1 
   1       0.3430122000      1.0000000000
 S 1 
   1       0.1669453000      1.0000000000
 P 2 
   1      13.5472892000     -0.6769313712
   2       5.4669419000     -0.3779500978
 P 1 
   1       2.1751721000      1.0000000000
 P 1 
   1       0.8582194000      1.0000000000
 P 1 
   1       0.3376720000      1.0000000000
 D 2 
   1       5.9287253000     -0.3533329857
   2       1.9809209000     -0.7456525731
 D 1 
   1       0.8055417000     -1.0000000000
 D 1 
   1       0.3531244000     -1.0000000000
 F 2 
   1       1.6755626000      0.6311076882
   2       0.5997536000      0.4968166032
 G 1 
   1       1.0024600000     -1.0000000000
  end;

 # Auxiliary/J basis set for element : N 
 NewAuxJGTO N 
 S 7 
   1    2542.9401785000      0.0128431329
   2    1029.5472946000      0.0206655120
   3     424.9053546000      0.0652200677
   4     178.4573708000      0.1617388940
   5      76.1362742000      0.3094256941
   6      32.9338653000      0.3918849307
   7      14.4155436000      0.1822470660
 S 1 
   1       6.3718891000     -1.0000000000
 S 1 
   1       2.8381742000      1.0000000000
 S 1 
   1       1.2711793000      1.0000000000
 S 1 
   1       0.5712407000      1.0000000000
 S 1 
   1       0.2569887000      1.0000000000
 P 2 
   1      17.8975990000     -1.0974070137
   2       6.5346319000      0.1380055963
 P 1 
   1       2.3523645000      1.0000000000
 P 1 
   1       0.8397377000      1.0000000000
 P 1 
   1       0.2989335000      1.0000000000
 D 2 
   1       7.6909870000      0.1770780943
   2       2.3044972000      0.8918319220
 D 1 
   1       0.8403987000      1.0000000000
 D 1 
   1       0.3303797000      1.0000000000
 F 2 
   1       2.3331076000      0.6223178877
   2       0.8446137000      0.5036714203
 G 1 
   1       1.4037700000     -1.0000000000
  end;

 # Auxiliary/J basis set for element : O 
 NewAuxJGTO O 
 S 7 
   1    2876.8216605000      0.0168151159
   2    1004.7443032000      0.0340137548
   3     369.7579954000      0.1194951309
   4     142.9442404000      0.2664627624
   5      57.8366425000      0.4202764046
   6      24.3864983000      0.2765077335
   7      10.6622662000      0.0057008815
 S 1 
   1       4.8070437000     -1.0000000000
 S 1 
   1       2.2210770000      1.0000000000
 S 1 
   1       1.0447795000      1.0000000000
 S 1 
   1       0.4968425000      1.0000000000
 S 1 
   1       0.2371384000      1.0000000000
 P 2 
   1      64.2613382000     -0.2731534179
   2      16.3006076000     -0.8168011598
 P 1 
   1       4.3550542000      1.0000000000
 P 1 
   1       1.2019554000      1.0000000000
 P 1 
   1       0.3354196000      1.0000000000
 D 2 
   1       9.2146611000     -0.4661230638
   2       2.8435251000     -0.6600908911
 D 1 
   1       0.9955759000     -1.0000000000
 D 1 
   1       0.3649441000     -1.0000000000
 F 2 
   1       2.6420115000      0.5931563945
   2       0.7345613000      0.5931563945
 G 1 
   1       1.3931000000     -1.0000000000
  end;


Checking for AutoStart:
The File: diazo_c02_sp.gbw exists
Trying to determine its content:
     ... Fine, the file contains calculation information
     ... Fine, the calculation information was read
     ... Fine, the file contains a basis set
     ... Fine, the basis set was read
     ... Fine, the file contains a geometry
     ... Fine, the geometry was read
     ... Fine, the file contains a set of orbitals
     ... Fine, the orbitals can be read
     => possible old guess file was deleted
     => GBW file was renamed to GES file
     => GES file is set as startup file
     => Guess is set to MORead
     ... now leaving AutoStart

------------------------------------------------------------------------------
                           ORCA GTO INTEGRAL CALCULATION
                           -- RI-GTO INTEGRALS CHOSEN --
------------------------------------------------------------------------------
------------------------------------------------------------------------------
                   ___                                                        
                  /   \      - P O W E R E D   B Y -                         
                 /     \                                                     
                 |  |  |   _    _      __       _____    __    __             
                 |  |  |  | |  | |    /  \     |  _  \  |  |  /  |          
                  \  \/   | |  | |   /    \    | | | |  |  | /  /          
                 / \  \   | |__| |  /  /\  \   | |_| |  |  |/  /          
                |  |  |   |  __  | /  /__\  \  |    /   |      \           
                |  |  |   | |  | | |   __   |  |    \   |  |\   \          
                \     /   | |  | | |  |  |  |  | |\  \  |  | \   \       
                 \___/    |_|  |_| |__|  |__|  |_| \__\ |__|  \__/        
                                                                              
                      - O R C A' S   B I G   F R I E N D -                    
                                      &                                       
                       - I N T E G R A L  F E E D E R -                       
                                                                              
 v1 FN, 2020, v2 2021                                                         
------------------------------------------------------------------------------


Reading SHARK input file diazo_c02_sp.SHARKINP.tmp ... ok
----------------------
SHARK INTEGRAL PACKAGE
----------------------

Number of atoms                             ...     11
Number of basis functions                   ...    241
Number of shells                            ...     93
Maximum angular momentum                    ...      3
Integral batch strategy                     ... SHARK/LIBINT Hybrid
RI-J (if used) integral strategy            ... SPLIT-RIJ (Revised 2003 algorithm where possible)
Printlevel                                  ...      1
Contraction scheme used                     ... SEGMENTED contraction
Coulomb Range Separation                    ... NOT USED
Exchange Range Separation                   ... NOT USED
Finite Nucleus Model                        ... NOT USED
Auxiliary Coulomb fitting basis             ... AVAILABLE
   # of basis functions in Aux-J            ...    387
   # of shells in Aux-J                     ...    125
   Maximum angular momentum in Aux-J        ...      4
Auxiliary J/K fitting basis                 ... NOT available
Auxiliary Correlation fitting basis         ... NOT available
Auxiliary 'external' fitting basis          ... NOT available
Integral threshold                          ...     2.500000e-11
Primitive cut-off                           ...     2.500000e-12
Primitive pair pre-selection threshold      ...     2.500000e-12

Calculating pre-screening integrals         ... done (  0.0 sec) Dimension = 93
Organizing shell pair data                  ... done (  0.0 sec)
Shell pair information
Total number of shell pairs                 ...      4371
Shell pairs after pre-screening             ...      3983
Total number of primitive shell pairs       ...     13696
Primitive shell pairs kept                  ...      9366
          la=0 lb=0:    977 shell pairs
          la=1 lb=0:   1087 shell pairs
          la=1 lb=1:    314 shell pairs
          la=2 lb=0:    593 shell pairs
          la=2 lb=1:    335 shell pairs
          la=2 lb=2:     99 shell pairs
          la=3 lb=0:    292 shell pairs
          la=3 lb=1:    165 shell pairs
          la=3 lb=2:     94 shell pairs
          la=3 lb=3:     27 shell pairs

Calculating one electron integrals          ... done (  0.0 sec)
Calculating RI/J V-Matrix + Cholesky decomp.... done (  0.0 sec)
Calculating Nuclear repulsion               ... done (  0.0 sec) ENN=    281.436922008689 Eh

SHARK setup successfully completed in   0.2 seconds

Maximum memory used throughout the entire GTOINT-calculation: 67.0 MB
-------------------------------------------------------------------------------
                                 ORCA SCF
-------------------------------------------------------------------------------

------------
SCF SETTINGS
------------
Hamiltonian:
 Density Functional     Method          .... DFT(GTOs)
 Exchange Functional    Exchange        .... B88
   X-Alpha parameter    XAlpha          ....  0.666667
   Becke's b parameter  XBeta           ....  0.004200
 Correlation Functional Correlation     .... LYP
 LDA part of GGA corr.  LDAOpt          .... VWN-5
 Gradients option       PostSCFGGA      .... off
 Hybrid DFT is turned on
   Fraction HF Exchange ScalHFX         ....  0.200000
   Scaling of DF-GGA-X  ScalDFX         ....  0.720000
   Scaling of DF-GGA-C  ScalDFC         ....  0.810000
   Scaling of DF-LDA-C  ScalLDAC        ....  1.000000
   Perturbative correction              ....  0.000000
   Density functional embedding theory  .... OFF
   NL short-range parameter             ....  4.800000
 RI-approximation to the Coulomb term is turned on
   Number of AuxJ basis functions       .... 387
   RIJ-COSX (HFX calculated with COS-X)).... on


General Settings:
 Integral files         IntName         .... diazo_c02_sp
 Hartree-Fock type      HFTyp           .... RHF
 Total Charge           Charge          ....    0
 Multiplicity           Mult            ....    1
 Number of Electrons    NEL             ....   52
 Basis Dimension        Dim             ....  241
 Nuclear Repulsion      ENuc            ....    281.4369220087 Eh

Convergence Acceleration:
 DIIS                   CNVDIIS         .... on
   Start iteration      DIISMaxIt       ....    12
   Startup error        DIISStart       ....  0.200000
   # of expansion vecs  DIISMaxEq       ....     5
   Bias factor          DIISBfac        ....   1.050
   Max. coefficient     DIISMaxC        ....  10.000
 Trust-Rad. Augm. Hess. CNVTRAH         .... auto
   Auto Start mean grad. ratio tolernc. ....  1.125000
   Auto Start start iteration           ....     1
   Auto Start num. interpolation iter.  ....    10
   Max. Number of Micro iterations      ....    16
   Max. Number of Macro iterations      .... Maxiter - #DIIS iter
   Number of Davidson start vectors     ....     2
   Converg. threshold I  (grad. norm)   ....   1.000e-05
   Converg. threshold II (energy diff.) ....   1.000e-08
   Grad. Scal. Fac. for Micro threshold ....   0.100
   Minimum threshold for Micro iter.    ....   0.010
   NR start threshold (gradient norm)   ....   0.001
   Initial trust radius                 ....   0.400
   Minimum AH scaling param. (alpha)    ....   1.000
   Maximum AH scaling param. (alpha)    .... 1000.000
   Orbital update algorithm             .... Taylor
   White noise on init. David. guess    .... on
   Maximum white noise                  ....   0.010
   Quad. conv. algorithm                .... NR
 SOSCF                  CNVSOSCF        .... on
   Start iteration      SOSCFMaxIt      ....   150
   Startup grad/error   SOSCFStart      ....  0.003300
 Level Shifting         CNVShift        .... on
   Level shift para.    LevelShift      ....    0.2500
   Turn off err/grad.   ShiftErr        ....    0.0010
 Zerner damping         CNVZerner       .... off
 Static damping         CNVDamp         .... on
   Fraction old density DampFac         ....    0.7000
   Max. Damping (<1)    DampMax         ....    0.9800
   Min. Damping (>=0)   DampMin         ....    0.0000
   Turn off err/grad.   DampErr         ....    0.1000
 Fernandez-Rico         CNVRico         .... off

SCF Procedure:
 Maximum # iterations   MaxIter         ....   125
 SCF integral mode      SCFMode         .... Direct
   Integral package                     .... SHARK and LIBINT hybrid scheme
 Reset frequency        DirectResetFreq ....    20
 Integral Threshold     Thresh          ....  2.500e-11 Eh
 Primitive CutOff       TCut            ....  2.500e-12 Eh

Convergence Tolerance:
 Convergence Check Mode ConvCheckMode   .... Total+1el-Energy
 Convergence forced     ConvForced      .... 0
 Energy Change          TolE            ....  1.000e-08 Eh
 1-El. energy change                    ....  1.000e-05 Eh
 Orbital Gradient       TolG            ....  1.000e-05
 Orbital Rotation angle TolX            ....  1.000e-05
 DIIS Error             TolErr          ....  5.000e-07


Diagonalization of the overlap matrix:
Smallest eigenvalue                        ... 1.658e-04
Time for diagonalization                   ...    0.009 sec
Threshold for overlap eigenvalues          ... 1.000e-08
Number of eigenvalues below threshold      ... 0
Time for construction of square roots      ...    0.003 sec
Total time needed                          ...    0.012 sec

---------------------
INITIAL GUESS: MOREAD
---------------------
Guess MOs are being read from file: diazo_c02_sp.ges
Input Geometry matches current geometry (good)
Input basis set matches current basis set (good)
MOs were renormalized
MOs were reorthogonalized (Cholesky)
                      ------------------
                      INITIAL GUESS DONE (   0.0 sec)
                      ------------------
-------------------
DFT GRID GENERATION
-------------------

General Integration Accuracy     IntAcc      ... 4.388
Radial Grid Type                 RadialGrid  ... OptM3 with GC (2021)
Angular Grid (max. ang.)         AngularGrid ... 4 (Lebedev-302)
Angular grid pruning method      GridPruning ... 4 (adaptive)
Weight generation scheme         WeightScheme... Becke
Basis function cutoff            BFCut       ... 1.0000e-11
Integration weight cutoff        WCut        ... 1.0000e-14
Angular grids for H and He will be reduced by one unit
Partially contracted basis set               ... off
Rotationally invariant grid construction     ... off

Total number of grid points                  ...    55523
Total number of batches                      ...      873
Average number of points per batch           ...       63
Average number of grid points per atom       ...     5048
Time for grid setup =    0.500 sec

--------------------
COSX GRID GENERATION
--------------------

GRIDX 1
-------
General Integration Accuracy     IntAcc      ... 3.816
Radial Grid Type                 RadialGrid  ... OptM3 with GC (2021)
Angular Grid (max. ang.)         AngularGrid ... 1 (Lebedev-50)
Angular grid pruning method      GridPruning ... 4 (adaptive)
Weight generation scheme         WeightScheme... Becke
Basis function cutoff            BFCut       ... 1.0000e-11
Integration weight cutoff        WCut        ... 1.0000e-14
Angular grids for H and He will be reduced by one unit
Partially contracted basis set               ... on
Rotationally invariant grid construction     ... off

Total number of grid points                  ...     7072
Total number of batches                      ...      117
Average number of points per batch           ...       60
Average number of grid points per atom       ...      643
UseSFitting                                  ... on

GRIDX 2
-------
General Integration Accuracy     IntAcc      ... 4.020
Radial Grid Type                 RadialGrid  ... OptM3 with GC (2021)
Angular Grid (max. ang.)         AngularGrid ... 2 (Lebedev-110)
Angular grid pruning method      GridPruning ... 4 (adaptive)
Weight generation scheme         WeightScheme... Becke
Basis function cutoff            BFCut       ... 1.0000e-11
Integration weight cutoff        WCut        ... 1.0000e-14
Angular grids for H and He will be reduced by one unit
Partially contracted basis set               ... on
Rotationally invariant grid construction     ... off

Total number of grid points                  ...    15968
Total number of batches                      ...      257
Average number of points per batch           ...       62
Average number of grid points per atom       ...     1452
UseSFitting                                  ... on

GRIDX 3
-------
General Integration Accuracy     IntAcc      ... 4.338
Radial Grid Type                 RadialGrid  ... OptM3 with GC (2021)
Angular Grid (max. ang.)         AngularGrid ... 3 (Lebedev-194)
Angular grid pruning method      GridPruning ... 4 (adaptive)
Weight generation scheme         WeightScheme... Becke
Basis function cutoff            BFCut       ... 1.0000e-11
Integration weight cutoff        WCut        ... 1.0000e-14
Angular grids for H and He will be reduced by one unit
Partially contracted basis set               ... on
Rotationally invariant grid construction     ... off

Total number of grid points                  ...    35289
Total number of batches                      ...      557
Average number of points per batch           ...       63
Average number of grid points per atom       ...     3208
UseSFitting                                  ... on

Time for X-Grid setup             =    0.709 sec


--------------------
CPCM SOLVATION MODEL
--------------------
CPCM parameters:
  Epsilon                                         ...       9.0800
  Refrac                                          ...       1.4240
  Rsolv                                           ...       1.3000
  Surface type                                    ... GAUSSIAN VDW
  Epsilon function type                           ...         CPCM
Radii:
 Radius for C  used is    3.8550 Bohr (=   2.0400 Ang.)
 Radius for N  used is    3.5149 Bohr (=   1.8600 Ang.)
 Radius for O  used is    3.4469 Bohr (=   1.8240 Ang.)
 Radius for H  used is    2.4944 Bohr (=   1.3200 Ang.)
Calculating surface                               ...        done! (  0.0s)
GEPOL surface points                              ...          703
GEPOL Volume                                      ...     806.0642
GEPOL Surface-area                                ...     497.2058
Calculating surface distance matrix               ...        done! (  0.0s)
Performing Cholesky decomposition & store         ...        done! (  0.0s)
Overall time for CPCM initialization              ...                 0.0s
--------------
SCF ITERATIONS
--------------
ITER       Energy         Delta-E        Max-DP      RMS-DP      [F,P]     Damp
               ***  Starting incremental Fock matrix formation  ***
                      *** Initiating the SOSCF procedure ***
                      *** Re-Reading the Fockian *** 
                      *** Removing any level shift *** 
ITER      Energy       Delta-E        Grad      Rot      Max-DP    RMS-DP
  0   -376.59913042 -376.5991304209  0.000000  0.000000  0.000003  0.000000
               *** Restarting incremental Fock matrix formation ***
                 **** Energy Check signals convergence ****
              ***Rediagonalizing the Fockian in SOSCF/NRSCF***

               *****************************************************
               *                     SUCCESS                       *
               *           SCF CONVERGED AFTER   1 CYCLES          *
               *****************************************************

Old exchange energy                            =     -9.302015469 Eh
New exchange energy                            =     -9.302011935 Eh
Exchange energy change after final integration =      0.000003533 Eh
Total energy after final integration           =   -376.599126887 Eh
Final COS-X integration done in                =    11.080 sec

----------------
TOTAL SCF ENERGY
----------------

Total Energy       :         -376.59912689 Eh          -10247.78323 eV

Components:
Nuclear Repulsion  :          281.43692201 Eh            7658.28799 eV
Electronic Energy  :         -658.03604890 Eh          -17906.07122 eV
One Electron Energy:        -1069.77280685 Eh          -29109.99800 eV
Two Electron Energy:          411.73675795 Eh           11203.92678 eV
Max COSX asymmetry :            0.00000099 Eh               0.00003 eV
CPCM Dielectric    :           -0.01011330 Eh              -0.27520 eV

Virial components:
Potential Energy   :         -751.55180430 Eh          -20450.76429 eV
Kinetic Energy     :          374.95267742 Eh           10202.98106 eV
Virial Ratio       :            2.00439109


DFT components:
N(Alpha)           :       25.999998069474 electrons
N(Beta)            :       25.999998069474 electrons
N(Total)           :       51.999996138947 electrons
E(X)               :      -37.083871014761 Eh       
E(C)               :       -2.129306347686 Eh       
E(XC)              :      -39.213177362447 Eh       
DFET-embed. en.    :        0.000000000000 Eh       
CPCM Solvation Model Properties:
Surface-charge          :           -0.01762984
Charge-correction       :           -0.00005948 Eh              -0.00162 eV
Free-energy (cav+disp)  :  This term is not implemented in the current solvation scheme

---------------
SCF CONVERGENCE
---------------

  Last Energy change         ...   -1.4211e-12  Tolerance :   1.0000e-08
  Last MAX-Density change    ...    1.6653e-15  Tolerance :   1.0000e-07
  Last RMS-Density change    ...    1.9844e-17  Tolerance :   5.0000e-09
  Last Orbital Gradient      ...    2.9253e-07  Tolerance :   1.0000e-05
  Last Orbital Rotation      ...    4.0927e-07  Tolerance :   1.0000e-05

             **** THE GBW FILE WAS UPDATED (diazo_c02_sp.gbw) ****
             **** DENSITY diazo_c02_sp.scfp WAS UPDATED ****
             **** ENERGY FILE WAS UPDATED (diazo_c02_sp.en.tmp) ****
             **** THE GBW FILE WAS UPDATED (diazo_c02_sp.gbw) ****
             **** DENSITY diazo_c02_sp.scfp WAS UPDATED ****
----------------
ORBITAL ENERGIES
----------------

  NO   OCC          E(Eh)            E(eV) 
   0   2.0000     -19.176407      -521.8166 
   1   2.0000     -19.116508      -520.1866 
   2   2.0000     -14.480910      -394.0456 
   3   2.0000     -14.417821      -392.3288 
   4   2.0000     -10.314825      -280.6806 
   5   2.0000     -10.229850      -278.3684 
   6   2.0000     -10.222903      -278.1793 
   7   2.0000      -1.137847       -30.9624 
   8   2.0000      -1.111234       -30.2382 
   9   2.0000      -1.024471       -27.8773 
  10   2.0000      -0.876531       -23.8516 
  11   2.0000      -0.735267       -20.0076 
  12   2.0000      -0.633064       -17.2265 
  13   2.0000      -0.566198       -15.4070 
  14   2.0000      -0.538057       -14.6413 
  15   2.0000      -0.512463       -13.9448 
  16   2.0000      -0.483536       -13.1577 
  17   2.0000      -0.481701       -13.1078 
  18   2.0000      -0.473896       -12.8954 
  19   2.0000      -0.450884       -12.2692 
  20   2.0000      -0.415561       -11.3080 
  21   2.0000      -0.402843       -10.9619 
  22   2.0000      -0.365969        -9.9585 
  23   2.0000      -0.314314        -8.5529 
  24   2.0000      -0.296038        -8.0556 
  25   2.0000      -0.250019        -6.8034 
  26   0.0000      -0.072216        -1.9651 
  27   0.0000      -0.042652        -1.1606 
  28   0.0000       0.053303         1.4505 
  29   0.0000       0.064684         1.7602 
  30   0.0000       0.067291         1.8311 
  31   0.0000       0.102296         2.7836 
  32   0.0000       0.114441         3.1141 
  33   0.0000       0.128542         3.4978 
  34   0.0000       0.131313         3.5732 
  35   0.0000       0.145801         3.9675 
  36   0.0000       0.194921         5.3041 
  37   0.0000       0.196238         5.3399 
  38   0.0000       0.208604         5.6764 
  39   0.0000       0.229177         6.2362 
  40   0.0000       0.246958         6.7201 
  41   0.0000       0.259461         7.0603 
  42   0.0000       0.281331         7.6554 
  43   0.0000       0.282206         7.6792 
  44   0.0000       0.292629         7.9628 
  45   0.0000       0.315577         8.5873 
  46   0.0000       0.333096         9.0640 
  47   0.0000       0.335251         9.1227 
  48   0.0000       0.364726         9.9247 
  49   0.0000       0.381832        10.3902 
  50   0.0000       0.401985        10.9386 
  51   0.0000       0.409721        11.1491 
  52   0.0000       0.427711        11.6386 
  53   0.0000       0.430263        11.7080 
  54   0.0000       0.435992        11.8639 
  55   0.0000       0.450702        12.2642 
  56   0.0000       0.465946        12.6790 
  57   0.0000       0.490609        13.3501 
  58   0.0000       0.510443        13.8899 
  59   0.0000       0.528296        14.3757 
  60   0.0000       0.539400        14.6778 
  61   0.0000       0.547324        14.8934 
  62   0.0000       0.581895        15.8342 
  63   0.0000       0.610078        16.6011 
  64   0.0000       0.621961        16.9244 
  65   0.0000       0.626704        17.0535 
  66   0.0000       0.649303        17.6684 
  67   0.0000       0.668122        18.1805 
  68   0.0000       0.718343        19.5471 
  69   0.0000       0.757011        20.5993 
  70   0.0000       0.760636        20.6980 
  71   0.0000       0.821878        22.3644 
  72   0.0000       0.839732        22.8503 
  73   0.0000       0.847620        23.0649 
  74   0.0000       0.859702        23.3937 
  75   0.0000       0.889075        24.1930 
  76   0.0000       0.903034        24.5728 
  77   0.0000       0.920558        25.0497 
  78   0.0000       0.940605        25.5952 
  79   0.0000       0.971119        26.4255 
  80   0.0000       1.021827        27.8053 
  81   0.0000       1.032734        28.1021 
  82   0.0000       1.057895        28.7868 
  83   0.0000       1.077071        29.3086 
  84   0.0000       1.118752        30.4428 
  85   0.0000       1.191680        32.4273 
  86   0.0000       1.277998        34.7761 
  87   0.0000       1.287169        35.0257 
  88   0.0000       1.299629        35.3647 
  89   0.0000       1.306120        35.5413 
  90   0.0000       1.355743        36.8917 
  91   0.0000       1.423579        38.7376 
  92   0.0000       1.431749        38.9599 
  93   0.0000       1.455545        39.6074 
  94   0.0000       1.466075        39.8939 
  95   0.0000       1.480856        40.2961 
  96   0.0000       1.507390        41.0182 
  97   0.0000       1.510172        41.0939 
  98   0.0000       1.522228        41.4219 
  99   0.0000       1.574456        42.8431 
 100   0.0000       1.575563        42.8733 
 101   0.0000       1.593628        43.3648 
 102   0.0000       1.654953        45.0336 
 103   0.0000       1.704384        46.3787 
 104   0.0000       1.714245        46.6470 
 105   0.0000       1.721849        46.8539 
 106   0.0000       1.785303        48.5806 
 107   0.0000       1.798089        48.9285 
 108   0.0000       1.832029        49.8520 
 109   0.0000       1.859177        50.5908 
 110   0.0000       1.883453        51.2514 
 111   0.0000       1.902424        51.7676 
 112   0.0000       1.926428        52.4208 
 113   0.0000       1.949292        53.0429 
 114   0.0000       1.977638        53.8143 
 115   0.0000       2.002448        54.4894 
 116   0.0000       2.004020        54.5321 
 117   0.0000       2.032964        55.3198 
 118   0.0000       2.093048        56.9547 
 119   0.0000       2.150044        58.5057 
 120   0.0000       2.157706        58.7142 
 121   0.0000       2.161471        58.8166 
 122   0.0000       2.201602        59.9086 
 123   0.0000       2.238115        60.9022 
 124   0.0000       2.243318        61.0438 
 125   0.0000       2.273083        61.8537 
 126   0.0000       2.284213        62.1566 
 127   0.0000       2.296354        62.4870 
 128   0.0000       2.326414        63.3049 
 129   0.0000       2.379923        64.7610 
 130   0.0000       2.381904        64.8149 
 131   0.0000       2.499409        68.0124 
 132   0.0000       2.505493        68.1779 
 133   0.0000       2.515281        68.4443 
 134   0.0000       2.541420        69.1555 
 135   0.0000       2.554044        69.4991 
 136   0.0000       2.574666        70.0602 
 137   0.0000       2.641726        71.8850 
 138   0.0000       2.663617        72.4807 
 139   0.0000       2.724544        74.1386 
 140   0.0000       2.749191        74.8093 
 141   0.0000       2.777149        75.5701 
 142   0.0000       2.793001        76.0014 
 143   0.0000       2.799005        76.1648 
 144   0.0000       2.857575        77.7586 
 145   0.0000       2.932476        79.7967 
 146   0.0000       2.999514        81.6209 
 147   0.0000       3.000641        81.6516 
 148   0.0000       3.019528        82.1655 
 149   0.0000       3.056643        83.1755 
 150   0.0000       3.119414        84.8836 
 151   0.0000       3.122067        84.9558 
 152   0.0000       3.161808        86.0372 
 153   0.0000       3.163523        86.0838 
 154   0.0000       3.200397        87.0872 
 155   0.0000       3.211344        87.3851 
 156   0.0000       3.219349        87.6029 
 157   0.0000       3.232803        87.9690 
 158   0.0000       3.242561        88.2346 
 159   0.0000       3.293314        89.6156 
 160   0.0000       3.332281        90.6760 
 161   0.0000       3.343845        90.9906 
 162   0.0000       3.354765        91.2878 
 163   0.0000       3.402829        92.5957 
 164   0.0000       3.423171        93.1492 
 165   0.0000       3.477848        94.6371 
 166   0.0000       3.485488        94.8450 
 167   0.0000       3.531314        96.0919 
 168   0.0000       3.548894        96.5703 
 169   0.0000       3.566374        97.0460 
 170   0.0000       3.601103        97.9910 
 171   0.0000       3.602630        98.0325 
 172   0.0000       3.622027        98.5604 
 173   0.0000       3.653548        99.4181 
 174   0.0000       3.717469       101.1575 
 175   0.0000       3.783627       102.9577 
 176   0.0000       3.818058       103.8947 
 177   0.0000       3.838340       104.4466 
 178   0.0000       3.965615       107.9099 
 179   0.0000       3.981915       108.3534 
 180   0.0000       4.066753       110.6620 
 181   0.0000       4.104312       111.6840 
 182   0.0000       4.148042       112.8740 
 183   0.0000       4.173079       113.5553 
 184   0.0000       4.202408       114.3533 
 185   0.0000       4.235508       115.2540 
 186   0.0000       4.245898       115.5368 
 187   0.0000       4.315693       117.4360 
 188   0.0000       4.368292       118.8673 
 189   0.0000       4.371544       118.9558 
 190   0.0000       4.404617       119.8557 
 191   0.0000       4.433478       120.6411 
 192   0.0000       4.501605       122.4949 
 193   0.0000       4.530321       123.2763 
 194   0.0000       4.531658       123.3127 
 195   0.0000       4.596047       125.0648 
 196   0.0000       4.689765       127.6150 
 197   0.0000       4.691829       127.6712 
 198   0.0000       4.771791       129.8470 
 199   0.0000       4.817629       131.0944 
 200   0.0000       4.856439       132.1504 
 201   0.0000       5.017656       136.5373 
 202   0.0000       5.133319       139.6847 
 203   0.0000       5.152031       140.1939 
 204   0.0000       5.183557       141.0518 
 205   0.0000       5.195689       141.3819 
 206   0.0000       5.282865       143.7541 
 207   0.0000       5.302358       144.2845 
 208   0.0000       5.354074       145.6918 
 209   0.0000       5.474479       148.9682 
 210   0.0000       5.475184       148.9873 
 211   0.0000       5.640973       153.4987 
 212   0.0000       5.660005       154.0166 
 213   0.0000       5.828926       158.6131 
 214   0.0000       5.953527       162.0037 
 215   0.0000       6.090813       165.7394 
 216   0.0000       6.156826       167.5358 
 217   0.0000       6.165767       167.7790 
 218   0.0000       6.321508       172.0170 
 219   0.0000       6.347387       172.7212 
 220   0.0000       6.434459       175.0905 
 221   0.0000       6.479758       176.3232 
 222   0.0000       6.521596       177.4616 
 223   0.0000       6.550245       178.2412 
 224   0.0000       6.629478       180.3973 
 225   0.0000       6.677073       181.6924 
 226   0.0000       6.747107       183.5981 
 227   0.0000       6.867066       186.8624 
 228   0.0000       6.893043       187.5692 
 229   0.0000       6.975878       189.8233 
 230   0.0000       7.064028       192.2220 
 231   0.0000       7.104986       193.3365 
 232   0.0000       7.277509       198.0311 
 233   0.0000       7.415443       201.7845 
 234   0.0000      22.261222       605.7586 
 235   0.0000      22.722957       618.3231 
 236   0.0000      23.279721       633.4734 
 237   0.0000      31.638456       860.9262 
 238   0.0000      32.899622       895.2442 
 239   0.0000      43.846775      1193.1314 
 240   0.0000      44.083768      1199.5803 
------------------
MOLECULAR ORBITALS
------------------
                      0         1         2         3         4         5   
                 -19.17641 -19.11651 -14.48091 -14.41782 -10.31482 -10.22985
                   2.00000   2.00000   2.00000   2.00000   2.00000   2.00000
                  --------  --------  --------  --------  --------  --------
  0C   1s        -0.000009  0.000017 -0.000050  0.000004 -0.000879 -0.466849
  0C   2s         0.000043 -0.000084  0.000250 -0.000020 -0.001271 -0.608001
  0C   3s        -0.000467  0.001095 -0.000164 -0.000595  0.000502 -0.041456
  0C   4s        -0.003241 -0.001585 -0.020080 -0.004050 -0.010814  0.024953
  0C   5s        -0.003191 -0.002821  0.005822 -0.000902  0.014493  0.001873
  0C   1pz        0.000009  0.000007  0.000145  0.000033 -0.000010  0.000353
  0C   1px        0.000081 -0.000101  0.000069  0.000032 -0.000022  0.000829
  0C   1py        0.000084  0.000020  0.000971  0.000227 -0.000072  0.002547
  0C   2pz       -0.000940  0.000739  0.002911  0.000185 -0.000547  0.000893
  0C   2px        0.004305 -0.001632 -0.001814  0.000091  0.005906 -0.003539
  0C   2py       -0.005139  0.004506  0.018900  0.001277 -0.002111  0.004969
  0C   3pz        0.000395  0.000301 -0.000274  0.000095  0.000609 -0.000903
  0C   3px        0.003049  0.001730 -0.004567 -0.001998 -0.003075 -0.003758
  0C   3py        0.003492  0.002518 -0.003057  0.000099  0.003256 -0.007064
  0C   1dz2       0.000060 -0.000067  0.000404  0.000010 -0.000090  0.001583
  0C   1dxz       0.000008 -0.000011  0.000007 -0.000003 -0.000033  0.000112
  0C   1dyz      -0.000005  0.000014 -0.000210  0.000001  0.000005 -0.000550
  0C   1dx2y2    -0.000065  0.000030  0.000657 -0.000020  0.000161  0.000785
  0C   1dxy       0.000004 -0.000033  0.000026 -0.000030 -0.000139  0.000195
  0C   2dz2      -0.000498  0.000879  0.002101 -0.000417  0.000328  0.000817
  0C   2dxz       0.000452 -0.000283 -0.000387  0.000069 -0.000031 -0.000480
  0C   2dyz       0.000279 -0.000339 -0.001231  0.000134  0.000041 -0.000463
  0C   2dx2y2    -0.001747  0.001251  0.004991 -0.000277 -0.000727  0.002378
  0C   2dxy       0.002813 -0.001998 -0.002280  0.000576 -0.000530 -0.002966
  0C   1f0        0.000061 -0.000024 -0.000079  0.000067 -0.000153 -0.000204
  0C   1f+1       0.000026 -0.000126 -0.000033  0.000037  0.000270  0.000426
  0C   1f-1       0.000161 -0.000095 -0.000214  0.000176 -0.000329 -0.000387
  0C   1f+2       0.000048 -0.000038 -0.000014  0.000096  0.000094 -0.000333
  0C   1f-2       0.000033  0.000033 -0.000041 -0.000025 -0.000142 -0.000017
  0C   1f+3       0.000146  0.000043 -0.000118 -0.000074 -0.000054  0.000215
  0C   1f-3       0.000012  0.000036 -0.000253 -0.000275 -0.000877  0.001443
  1C   1s        -0.000041  0.000039 -0.000013  0.000000 -0.466972  0.000964
  1C   2s         0.000225 -0.000240  0.000076 -0.000001 -0.607992  0.001134
  1C   3s         0.000297  0.000256 -0.000742  0.000296 -0.039123  0.000248
  1C   4s        -0.000000  0.004354 -0.002512 -0.000536  0.019034 -0.007217
  1C   5s         0.004354 -0.000892 -0.005236 -0.002217 -0.015140 -0.000332
  1C   1pz        0.000015  0.000106  0.000012 -0.000005 -0.000037  0.000032
  1C   1px       -0.000064  0.000069  0.000009 -0.000011  0.000224 -0.000274
  1C   1py        0.000086  0.000736  0.000083 -0.000031 -0.000192  0.000136
  1C   2pz       -0.000133  0.001519  0.000346 -0.000002 -0.002022  0.000190
  1C   2px        0.009671 -0.002309 -0.003716  0.000258  0.007058 -0.001236
  1C   2py        0.001783  0.009670  0.001313  0.000046 -0.011748  0.000967
  1C   3pz       -0.000587 -0.001159  0.000456  0.000278  0.000900  0.000471
  1C   3px       -0.002853  0.000035 -0.000871 -0.000612 -0.007817  0.000114
  1C   3py       -0.004777 -0.007844  0.002844  0.001692  0.003937  0.003216
  1C   1dz2       0.000307 -0.000215  0.000094  0.000008  0.002190 -0.000122
  1C   1dxz      -0.000026 -0.000004  0.000016  0.000004  0.000076 -0.000032
  1C   1dyz      -0.000028  0.000102 -0.000031  0.000010 -0.000735  0.000019
  1C   1dx2y2    -0.000234 -0.000305  0.000022 -0.000079  0.001153  0.000117
  1C   1dxy      -0.000391 -0.000005  0.000071  0.000001 -0.000252 -0.000122
  1C   2dz2       0.001018 -0.001776 -0.000425  0.000312  0.000659 -0.000120
  1C   2dxz      -0.000824  0.000136  0.000253 -0.000057 -0.000802 -0.000306
  1C   2dyz      -0.000083  0.001310  0.000325 -0.000149 -0.000596  0.000100
  1C   2dx2y2     0.000461 -0.005695 -0.001783  0.000540  0.004161  0.000153
  1C   2dxy      -0.005950  0.000252  0.001428 -0.000387 -0.004618 -0.001976
  1C   1f0       -0.000086 -0.000102  0.000029  0.000002  0.000343  0.000153
  1C   1f+1      -0.000504 -0.000023 -0.000014 -0.000020 -0.000667 -0.000492
  1C   1f-1      -0.000365 -0.000273  0.000071 -0.000002  0.000678  0.000272
  1C   1f+2      -0.000093 -0.000050  0.000035  0.000014  0.000569 -0.000127
  1C   1f-2       0.000076 -0.000037  0.000042  0.000009  0.000160  0.000163
  1C   1f+3      -0.000052 -0.000086  0.000188  0.000042  0.000370 -0.000103
  1C   1f-3      -0.000176 -0.000131 -0.000046 -0.000073 -0.002292  0.000851
  2N   1s         0.000009 -0.000006 -0.448280  0.004624 -0.000006  0.000059
  2N   2s        -0.000055  0.000037 -0.626223  0.006464  0.000060  0.000360
  2N   3s         0.000842 -0.000675 -0.045670 -0.002890 -0.000713 -0.006700
  2N   4s        -0.004786  0.003905  0.063850  0.011614  0.001790  0.031187
  2N   5s         0.004190  0.001455 -0.031829  0.001238  0.003186  0.010173
  2N   1pz        0.000020 -0.000019  0.000032  0.000049 -0.000030 -0.000057
  2N   1px       -0.000024  0.000051  0.000113 -0.000010  0.000112  0.000026
  2N   1py        0.000120 -0.000109  0.000237  0.000325 -0.000171 -0.000371
  2N   2pz       -0.000423  0.000392 -0.000131 -0.001462  0.000027 -0.000664
  2N   2px        0.000341 -0.000482 -0.000720 -0.000165 -0.000879 -0.000676
  2N   2py       -0.002692  0.002460 -0.001016 -0.009701 -0.000028 -0.004538
  2N   3pz        0.000318  0.000026  0.002541  0.001087 -0.000181 -0.003808
  2N   3px       -0.000724  0.000640  0.001748  0.000725 -0.000579 -0.000385
  2N   3py        0.001880  0.000304  0.017263  0.007383 -0.001338 -0.025235
  2N   1dz2       0.000057 -0.000028  0.000847 -0.000082  0.000022 -0.000021
  2N   1dxz       0.000004 -0.000003 -0.000012 -0.000002  0.000011 -0.000003
  2N   1dyz      -0.000010  0.000002 -0.000468  0.000045 -0.000024 -0.000007
  2N   1dx2y2    -0.000030  0.000029  0.001571 -0.000145  0.000091  0.000077
  2N   1dxy      -0.000008  0.000001 -0.000072 -0.000014  0.000088  0.000012
  2N   2dz2       0.000004 -0.000147 -0.005571 -0.002866 -0.000280 -0.004455
  2N   2dxz       0.000033 -0.000040  0.000042  0.000094 -0.000130  0.000038
  2N   2dyz      -0.000088  0.000138  0.003083  0.001557  0.000174  0.002522
  2N   2dx2y2     0.000440 -0.000526 -0.010308 -0.005232 -0.000427 -0.008617
  2N   2dxy       0.000325 -0.000326  0.000228  0.000611 -0.000840  0.000114
  2N   1f0        0.000006 -0.000004 -0.000020  0.000346 -0.000012 -0.000123
  2N   1f+1       0.000034  0.000012 -0.000010  0.000021 -0.000020 -0.000017
  2N   1f-1       0.000024 -0.000007 -0.000055  0.000868 -0.000036 -0.000312
  2N   1f+2       0.000015 -0.000008 -0.000016  0.000452  0.000010 -0.000195
  2N   1f-2      -0.000012 -0.000013  0.000000 -0.000023 -0.000027  0.000023
  2N   1f+3      -0.000017 -0.000055  0.000007 -0.000095 -0.000122  0.000053
  2N   1f-3      -0.000039  0.000025  0.000010 -0.001224 -0.000135  0.000620
  3O   1s        -0.435117  0.000019  0.000004  0.000000  0.000022 -0.000003
  3O   2s        -0.639364  0.000015 -0.000044 -0.000006  0.000214  0.000027
  3O   3s        -0.037878 -0.000069  0.000485 -0.000003 -0.002404 -0.000296
  3O   4s         0.033034  0.000996 -0.001732  0.000347  0.006478  0.000784
  3O   5s        -0.007542 -0.001075  0.000232 -0.000736 -0.004733  0.003936
  3O   1pz       -0.000283 -0.000006 -0.000003 -0.000005 -0.000036 -0.000006
  3O   1px       -0.000089  0.000073  0.000084 -0.000024 -0.000526 -0.000039
  3O   1py       -0.001941 -0.000019  0.000009 -0.000037 -0.000391 -0.000050
  3O   2pz        0.000737  0.000095  0.000011  0.000013  0.000230  0.000034
  3O   2px        0.001191 -0.000018 -0.000713  0.000352  0.003272  0.000255
  3O   2py        0.005312  0.000639 -0.000136  0.000183  0.002476  0.000290
  3O   3pz        0.000144  0.000208 -0.000100 -0.000157 -0.000397  0.000113
  3O   3px       -0.002141 -0.001402  0.000749  0.000769 -0.000037  0.000994
  3O   3py        0.000408  0.001016 -0.000458 -0.000821 -0.002709  0.001028
  3O   1dz2       0.000266 -0.000071  0.000002 -0.000020  0.000011  0.000011
  3O   1dxz       0.000026 -0.000007 -0.000000 -0.000005 -0.000033  0.000002
  3O   1dyz      -0.000026  0.000009 -0.000005  0.000010  0.000011  0.000001
  3O   1dx2y2    -0.000279  0.000062  0.000027 -0.000019 -0.000026 -0.000025
  3O   1dxy      -0.000032  0.000005  0.000006 -0.000028 -0.000234  0.000003
  3O   2dz2      -0.001644  0.000211  0.000066  0.000070 -0.000923 -0.000096
  3O   2dxz      -0.000150  0.000053  0.000009  0.000031  0.000268 -0.000045
  3O   2dyz       0.000181 -0.000004  0.000016 -0.000043  0.000063 -0.000001
  3O   2dx2y2     0.001592 -0.000384 -0.000208  0.000104  0.000501  0.000235
  3O   2dxy       0.000247  0.000156 -0.000035  0.000203  0.002399 -0.000198
  3O   1f0       -0.000060  0.000014  0.000005  0.000004 -0.000066 -0.000006
  3O   1f+1       0.000045  0.000064 -0.000013 -0.000012 -0.000344  0.000039
  3O   1f-1      -0.000147  0.000054  0.000010  0.000006 -0.000277 -0.000002
  3O   1f+2       0.000042  0.000027  0.000001  0.000002  0.000041 -0.000005
  3O   1f-2      -0.000026 -0.000009  0.000007  0.000001  0.000084 -0.000021
  3O   1f+3       0.000087  0.000026  0.000014 -0.000012  0.000291 -0.000069
  3O   1f-3      -0.000387 -0.000045  0.000005 -0.000009 -0.000633  0.000016
  4O   1s         0.000016  0.435086  0.000002 -0.000001  0.000074 -0.000004
  4O   2s         0.000030  0.639477 -0.000022  0.000011  0.000293  0.000049
  4O   3s         0.000054  0.036851  0.000252 -0.000132 -0.003244 -0.000421
  4O   4s        -0.000628 -0.032608 -0.001635  0.000757  0.012158  0.000774
  4O   5s         0.001826  0.012616  0.000081 -0.000628  0.001138 -0.000706
  4O   1pz        0.000016 -0.000328 -0.000004 -0.000003  0.000099  0.000022
  4O   1px       -0.000060  0.000037  0.000045 -0.000008 -0.000072 -0.000124
  4O   1py        0.000096 -0.002224 -0.000021 -0.000017  0.000651  0.000109
  4O   2pz       -0.000041  0.001041  0.000080 -0.000022 -0.001239 -0.000061
  4O   2px        0.000669 -0.000130 -0.000370  0.000069  0.000772  0.000772
  4O   2py       -0.000106  0.007050  0.000466 -0.000140 -0.008194 -0.000178
  4O   3pz        0.000003 -0.000074 -0.000104 -0.000034 -0.000102 -0.000097
  4O   3px        0.001012 -0.000149  0.000635  0.000188  0.001563  0.000902
  4O   3py        0.000322 -0.000567 -0.000526 -0.000165 -0.000247 -0.000418
  4O   1dz2       0.000057 -0.000101  0.000029 -0.000001 -0.000046  0.000019
  4O   1dxz       0.000011  0.000002  0.000006  0.000002  0.000005  0.000015
  4O   1dyz      -0.000016  0.000072 -0.000010  0.000000  0.000002 -0.000013
  4O   1dx2y2    -0.000008 -0.000295  0.000008 -0.000002  0.000046  0.000022
  4O   1dxy       0.000047 -0.000018  0.000027  0.000011  0.000069  0.000101
  4O   2dz2      -0.000150  0.000655 -0.000128 -0.000006 -0.001342 -0.000066
  4O   2dxz      -0.000069 -0.000005 -0.000004 -0.000008 -0.000056 -0.000093
  4O   2dyz       0.000041 -0.000398  0.000043  0.000006  0.000835  0.000031
  4O   2dx2y2     0.000091  0.001493 -0.000060 -0.000014 -0.003062  0.000082
  4O   2dxy      -0.000373  0.000050  0.000022 -0.000055 -0.000556 -0.000577
  4O   1f0        0.000007 -0.000040  0.000013 -0.000004  0.000121  0.000008
  4O   1f+1       0.000020  0.000004  0.000005  0.000004  0.000023  0.000022
  4O   1f-1       0.000023 -0.000101  0.000036 -0.000010  0.000315  0.000026
  4O   1f+2       0.000002 -0.000051  0.000012 -0.000004  0.000203 -0.000007
  4O   1f-2      -0.000002  0.000002 -0.000006 -0.000002 -0.000010  0.000007
  4O   1f+3       0.000001  0.000014 -0.000038 -0.000004  0.000034  0.000032
  4O   1f-3       0.000025  0.000147 -0.000022  0.000006 -0.000659  0.000093
  5C   1s        -0.000026  0.000005 -0.000000  0.000000  0.000056  0.000095
  5C   2s         0.000129 -0.000024  0.000002  0.000000 -0.000030  0.000097
  5C   3s         0.001857  0.000148 -0.000086 -0.000140  0.000490  0.000494
  5C   4s        -0.007492 -0.000206  0.000302  0.000709  0.000599 -0.001409
  5C   5s         0.003271 -0.003488  0.001413  0.001197  0.000746  0.000022
  5C   1pz       -0.000021 -0.000005  0.000004  0.000003 -0.000024 -0.000003
  5C   1px        0.000182  0.000129 -0.000050 -0.000056  0.000209  0.000138
  5C   1py       -0.000095  0.000005  0.000011  0.000004 -0.000083  0.000020
  5C   2pz        0.000624  0.000043 -0.000022 -0.000030  0.000120  0.000046
  5C   2px       -0.004984 -0.000328  0.000403  0.000652  0.000909 -0.001045
  5C   2py        0.002826  0.000183 -0.000046 -0.000044  0.000806  0.000052
  5C   3pz        0.000117  0.000015 -0.000018 -0.000035 -0.000043 -0.000039
  5C   3px       -0.000017 -0.000134  0.000315  0.000167 -0.000300 -0.000495
  5C   3py        0.000643  0.000068 -0.000035 -0.000182 -0.000307 -0.000396
  5C   1dz2       0.000255 -0.000044 -0.000006 -0.000013 -0.000150  0.000013
  5C   1dxz       0.000081  0.000001 -0.000001 -0.000002 -0.000011  0.000008
  5C   1dyz      -0.000043  0.000004  0.000005  0.000005  0.000023 -0.000015
  5C   1dx2y2    -0.000260  0.000036 -0.000020 -0.000006  0.000107  0.000056
  5C   1dxy       0.000347  0.000037 -0.000006 -0.000004  0.000035  0.000062
  5C   2dz2       0.001605  0.000180  0.000014  0.000013  0.001039  0.000137
  5C   2dxz       0.000488 -0.000024 -0.000025 -0.000039 -0.000068  0.000045
  5C   2dyz      -0.000306 -0.000013 -0.000020 -0.000024 -0.000222  0.000044
  5C   2dx2y2    -0.001400 -0.000150  0.000129  0.000189 -0.000047 -0.000549
  5C   2dxy       0.002111 -0.000273 -0.000134 -0.000215 -0.000916  0.000075
  5C   1f0       -0.000123  0.000013  0.000006  0.000008  0.000002 -0.000014
  5C   1f+1       0.000467 -0.000018 -0.000018 -0.000030  0.000041  0.000060
  5C   1f-1      -0.000200  0.000030  0.000009  0.000012  0.000011 -0.000021
  5C   1f+2       0.000101  0.000006  0.000001 -0.000004  0.000001  0.000011
  5C   1f-2      -0.000139  0.000014  0.000007  0.000007  0.000010 -0.000010
  5C   1f+3       0.000111  0.000027  0.000010 -0.000013  0.000077  0.000046
  5C   1f-3      -0.000620  0.000015  0.000005  0.000023  0.000038 -0.000051
  6N   1s         0.000001  0.000001 -0.004500 -0.448230 -0.000001  0.000001
  6N   2s        -0.000006 -0.000007 -0.006344 -0.627076  0.000003 -0.000019
  6N   3s         0.000156 -0.000030 -0.000063 -0.033780  0.000031  0.001857
  6N   4s        -0.000690  0.000095 -0.020267  0.006320 -0.000852 -0.020435
  6N   5s         0.001090  0.000318  0.028895 -0.000173 -0.002881 -0.027783
  6N   1pz        0.000003 -0.000002 -0.000051 -0.000517 -0.000000  0.000049
  6N   1px       -0.000027  0.000017  0.000015 -0.000111  0.000002  0.000022
  6N   1py        0.000008 -0.000008 -0.000334 -0.003439 -0.000001  0.000330
  6N   2pz       -0.000071  0.000035 -0.001777 -0.001023 -0.000096 -0.002021
  6N   2px        0.000186 -0.000109 -0.000635 -0.000231 -0.000238 -0.000643
  6N   2py       -0.000405  0.000193 -0.011893 -0.006817 -0.000697 -0.013490
  6N   3pz        0.000039  0.000021  0.001420  0.000129 -0.000176 -0.001387
  6N   3px        0.000206 -0.000143  0.000115 -0.000014  0.000282 -0.000369
  6N   3py        0.000317  0.000110  0.009387  0.000843 -0.001086 -0.009243
  6N   1dz2       0.000006 -0.000005 -0.000088  0.000551  0.000007  0.000014
  6N   1dxz      -0.000003  0.000003  0.000004 -0.000012 -0.000003  0.000001
  6N   1dyz      -0.000005  0.000001  0.000050 -0.000305 -0.000002 -0.000001
  6N   1dx2y2     0.000028 -0.000001 -0.000176  0.001031  0.000005 -0.000016
  6N   1dxy      -0.000015  0.000020  0.000025 -0.000070 -0.000022 -0.000001
  6N   2dz2       0.000100 -0.000057  0.001110  0.000965  0.000076  0.001927
  6N   2dxz       0.000028 -0.000012 -0.000050 -0.000016 -0.000010 -0.000060
  6N   2dyz      -0.000049  0.000036 -0.000607 -0.000531 -0.000049 -0.001065
  6N   2dx2y2     0.000084 -0.000110  0.002079  0.001783  0.000195  0.003611
  6N   2dxy       0.000161 -0.000078 -0.000311 -0.000097 -0.000051 -0.000366
  6N   1f0        0.000015 -0.000010 -0.000178  0.000088 -0.000009  0.000044
  6N   1f+1      -0.000005 -0.000002 -0.000011  0.000006 -0.000001  0.000011
  6N   1f-1       0.000036 -0.000025 -0.000446  0.000219 -0.000024  0.000113
  6N   1f+2       0.000013 -0.000010 -0.000226  0.000116 -0.000004  0.000060
  6N   1f-2       0.000009  0.000001  0.000009 -0.000007 -0.000002 -0.000011
  6N   1f+3       0.000028  0.000009  0.000044 -0.000029  0.000001 -0.000040
  6N   1f-3      -0.000011  0.000017  0.000594 -0.000317 -0.000011 -0.000169
  7H   1s        -0.000029  0.000087 -0.000241 -0.000043 -0.000160  0.000653
  7H   2s        -0.001560  0.000694  0.000538 -0.000352  0.000166  0.002386
  7H   3s        -0.001408 -0.001016  0.002334  0.001295 -0.001142  0.004005
  7H   1pz       -0.000035  0.000026 -0.000005 -0.000006  0.000039 -0.000030
  7H   1px        0.000303 -0.000240 -0.000142  0.000112 -0.000002 -0.002067
  7H   1py       -0.000154  0.000112 -0.000067 -0.000004  0.000255 -0.000770
  8H   1s        -0.000065 -0.000014  0.000022  0.000030  0.000141 -0.000007
  8H   2s         0.000162  0.000429  0.000127  0.000181  0.001426 -0.000104
  8H   3s        -0.000423  0.000606 -0.000223 -0.000352 -0.001016 -0.000311
  8H   1pz       -0.000016  0.000008  0.000002  0.000003  0.000027  0.000003
  8H   1px        0.000312  0.000009  0.000035  0.000043  0.000199 -0.000044
  8H   1py       -0.000027  0.000048  0.000021  0.000028  0.000191  0.000009
  9H   1s        -0.000048 -0.000047  0.000013  0.000003 -0.000036  0.000003
  9H   2s        -0.000358  0.000137 -0.000132 -0.000121 -0.000830  0.000089
  9H   3s        -0.001098  0.000980 -0.000230 -0.000175  0.000038 -0.000027
  9H   1pz       -0.000071 -0.000004  0.000007  0.000011  0.000074 -0.000012
  9H   1px        0.000041  0.000097 -0.000011 -0.000006  0.000048  0.000031
  9H   1py       -0.000046  0.000037  0.000010  0.000023  0.000172 -0.000036
 10H   1s        -0.000048 -0.000044  0.000014  0.000004 -0.000031  0.000003
 10H   2s        -0.000363  0.000135 -0.000134 -0.000119 -0.000783  0.000081
 10H   3s        -0.001069  0.000983 -0.000230 -0.000177  0.000009 -0.000021
 10H   1pz        0.000050  0.000006 -0.000003 -0.000003 -0.000012 -0.000003
 10H   1px        0.000047  0.000096 -0.000012 -0.000006  0.000051  0.000031
 10H   1py       -0.000064  0.000035  0.000012  0.000025  0.000181 -0.000036
                      6         7         8         9        10        11   
                 -10.22290  -1.13785  -1.11123  -1.02447  -0.87653  -0.73527
                   2.00000   2.00000   2.00000   2.00000   2.00000   2.00000
                  --------  --------  --------  --------  --------  --------
  0C   1s        -0.000091  0.019411  0.005673 -0.003708 -0.073461 -0.002500
  0C   2s        -0.000131  0.040396  0.011514 -0.007627 -0.154675 -0.005389
  0C   3s        -0.001113 -0.058747 -0.018259  0.015033  0.242920  0.010782
  0C   4s         0.008850 -0.038144 -0.009020 -0.016758  0.221277  0.003493
  0C   5s         0.003925  0.003183 -0.014953 -0.013492  0.054702 -0.003695
  0C   1pz       -0.000006  0.005721 -0.002772  0.001908 -0.015699 -0.014499
  0C   1px        0.000094  0.005864  0.016802 -0.000904 -0.018316  0.064974
  0C   1py       -0.000016  0.039404 -0.013994  0.012702 -0.108605 -0.078914
  0C   2pz        0.000386  0.002129 -0.000228  0.000711 -0.004508 -0.006088
  0C   2px       -0.004467  0.004442  0.004258  0.010185 -0.020127  0.032983
  0C   2py        0.001392  0.015161 -0.000376  0.007576 -0.034909 -0.031570
  0C   3pz        0.000376 -0.000766  0.000296  0.000027 -0.000847 -0.000880
  0C   3px        0.000088  0.000409  0.003210  0.003912 -0.007791  0.002683
  0C   3py        0.002578 -0.004970  0.002819  0.001202 -0.007660 -0.005101
  0C   1dz2      -0.000086  0.003753  0.000477 -0.000026 -0.011189 -0.000933
  0C   1dxz      -0.000015  0.000051  0.000173 -0.000097 -0.000409  0.000591
  0C   1dyz       0.000020 -0.001729  0.000118  0.000229  0.004542  0.001570
  0C   1dx2y2     0.000035  0.004752 -0.001712 -0.001209 -0.010063 -0.009124
  0C   1dxy      -0.000045 -0.000197  0.000470 -0.000979 -0.000053  0.002002
  0C   2dz2      -0.000889  0.003858 -0.000543  0.002450 -0.009121  0.000493
  0C   2dxz      -0.000315  0.000201 -0.000163  0.000562 -0.001831 -0.000093
  0C   2dyz       0.000216 -0.001545  0.000290 -0.000352  0.002592  0.000459
  0C   2dx2y2     0.000550  0.003200 -0.000673 -0.002542  0.001004 -0.003358
  0C   2dxy      -0.001545  0.000347 -0.000984  0.001885 -0.007625 -0.001750
  0C   1f0       -0.000022 -0.000515  0.000194 -0.000203  0.000780  0.000554
  0C   1f+1       0.000118 -0.000286 -0.000718 -0.000201  0.000556 -0.001388
  0C   1f-1      -0.000026 -0.001347  0.000301 -0.000555  0.002034  0.001044
  0C   1f+2       0.000025 -0.000846  0.000180 -0.000366  0.001836  0.000275
  0C   1f-2      -0.000038  0.000123  0.000014 -0.000239 -0.000440  0.000023
  0C   1f+3      -0.000006  0.000103 -0.000700 -0.001537 -0.000529 -0.001829
  0C   1f-3      -0.000133  0.002585 -0.000998  0.000723 -0.006945 -0.001003
  1C   1s        -0.000031  0.013916  0.054608 -0.028447 -0.014899  0.041165
  1C   2s        -0.000167  0.028998  0.114212 -0.059649 -0.031277  0.087832
  1C   3s         0.001961 -0.047179 -0.184477  0.092465  0.050768 -0.148373
  1C   4s        -0.007462 -0.029473 -0.133555  0.086462  0.036073 -0.156343
  1C   5s         0.000752 -0.000924 -0.003485  0.016967 -0.009535 -0.020430
  1C   1pz       -0.000022  0.000170 -0.005797  0.022364 -0.010658  0.015339
  1C   1px        0.000097  0.009187  0.062091  0.048593  0.050648  0.024023
  1C   1py       -0.000126  0.003641 -0.022044  0.165417 -0.057964  0.110902
  1C   2pz        0.000388  0.000251 -0.001096  0.006618 -0.005088  0.009048
  1C   2px       -0.004838  0.002987  0.019802  0.025032  0.019813 -0.002418
  1C   2py        0.001297  0.002470 -0.001916  0.051926 -0.028759  0.060773
  1C   3pz       -0.000038 -0.000222 -0.000616 -0.000215  0.000779  0.001163
  1C   3px       -0.005413  0.003007  0.003600  0.003357 -0.005279  0.001067
  1C   3py       -0.001739 -0.000687 -0.003188 -0.000507  0.003787  0.008137
  1C   1dz2      -0.000073  0.002619  0.011080 -0.005119 -0.001085  0.005100
  1C   1dxz      -0.000017  0.000002 -0.000317 -0.000717 -0.000645 -0.000404
  1C   1dyz       0.000001 -0.000801 -0.003280  0.004203  0.000234 -0.000664
  1C   1dx2y2     0.000129  0.001049  0.004396 -0.017077  0.001343 -0.002747
  1C   1dxy      -0.000044 -0.001003 -0.006413 -0.006973 -0.003431 -0.005968
  1C   2dz2       0.001444  0.001642  0.009608 -0.007215 -0.000871  0.005952
  1C   2dxz       0.000505  0.000165  0.000557 -0.001238 -0.000243  0.000531
  1C   2dyz      -0.000487 -0.000637 -0.002499  0.002563  0.001186 -0.002588
  1C   2dx2y2    -0.000051  0.001223  0.000214 -0.002920 -0.005514  0.006206
  1C   2dxy       0.002703  0.000611 -0.000876 -0.005669 -0.002663  0.002404
  1C   1f0       -0.000015 -0.000024  0.000383 -0.001153  0.000640 -0.000752
  1C   1f+1       0.000003 -0.000126 -0.001302 -0.000683 -0.000874 -0.000463
  1C   1f-1      -0.000042 -0.000108  0.000533 -0.003133  0.001398 -0.002173
  1C   1f+2       0.000027  0.000239  0.001670 -0.001835  0.000411  0.000385
  1C   1f-2       0.000026 -0.000099  0.000105  0.000093  0.000530  0.000380
  1C   1f+3       0.000199 -0.000215  0.001030 -0.000628  0.001221  0.003460
  1C   1f-3      -0.000147 -0.001552 -0.008484  0.005301 -0.000275 -0.004197
  2N   1s         0.000000  0.083095 -0.017861 -0.000713 -0.034738 -0.017868
  2N   2s        -0.000001  0.186557 -0.040160 -0.001599 -0.078474 -0.040705
  2N   3s         0.000075 -0.287731  0.062887  0.001629  0.118655  0.065282
  2N   4s        -0.000035 -0.296232  0.061459  0.007240  0.172768  0.085301
  2N   5s         0.000675 -0.024473  0.008242  0.002456  0.050812  0.025865
  2N   1pz       -0.000000  0.017653 -0.006450 -0.000750  0.040302  0.011765
  2N   1px        0.000047  0.005633  0.002198  0.001819  0.003727  0.029542
  2N   1py        0.000009  0.117784 -0.041986 -0.004432  0.267782  0.085701
  2N   2pz       -0.000044  0.009956 -0.003949 -0.000323  0.028252  0.008976
  2N   2px       -0.000250  0.003632  0.002545  0.002612  0.000770  0.024681
  2N   2py       -0.000351  0.066544 -0.025372 -0.001391  0.187295  0.065948
  2N   3pz       -0.000454 -0.003212  0.001997  0.001862  0.000732  0.002349
  2N   3px        0.001035 -0.000565 -0.001138 -0.001290 -0.000740  0.008460
  2N   3py       -0.002758 -0.021431  0.012905  0.011983  0.004730  0.017797
  2N   1dz2      -0.000065  0.007768 -0.001651 -0.000020 -0.000190 -0.000170
  2N   1dxz      -0.000005 -0.000093  0.000082  0.000020 -0.000058  0.000142
  2N   1dyz       0.000014 -0.004120  0.000895  0.000036  0.000059  0.000082
  2N   1dx2y2     0.000025  0.013344 -0.003050 -0.000220 -0.000041 -0.000497
  2N   1dxy       0.000002 -0.000807  0.000525  0.000083 -0.000304  0.000896
  2N   2dz2       0.000322  0.012332 -0.002618 -0.001163 -0.003557 -0.000191
  2N   2dxz       0.000007 -0.000031  0.000171  0.000190 -0.000284  0.000548
  2N   2dyz      -0.000089 -0.006334  0.001381  0.000588  0.001997  0.000199
  2N   2dx2y2     0.000035  0.019753 -0.004699 -0.002145 -0.006354 -0.001878
  2N   2dxy      -0.000094 -0.000872  0.001141  0.001237 -0.001855  0.003223
  2N   1f0        0.000009 -0.000926  0.000364  0.000011 -0.001628 -0.000380
  2N   1f+1      -0.000011 -0.000124 -0.000060 -0.000139 -0.000031 -0.000536
  2N   1f-1       0.000020 -0.002338  0.000889 -0.000011 -0.004082 -0.001106
  2N   1f+2       0.000009 -0.001137  0.000426 -0.000003 -0.001994 -0.000536
  2N   1f-2       0.000010  0.000079  0.000044  0.000090 -0.000002  0.000448
  2N   1f+3       0.000034  0.000378  0.000094  0.000286  0.000153  0.001656
  2N   1f-3      -0.000013  0.002870 -0.001027  0.000032  0.005036  0.001599
  3O   1s         0.000013  0.016752  0.073514  0.055675  0.009251  0.007456
  3O   2s         0.000136  0.039225  0.172335  0.130892  0.021862  0.017676
  3O   3s        -0.001201 -0.055335 -0.245300 -0.187495 -0.032385 -0.026447
  3O   4s         0.001553 -0.077577 -0.337942 -0.268236 -0.045101 -0.039007
  3O   5s        -0.004999 -0.023939 -0.103613 -0.099096 -0.014846 -0.031023
  3O   1pz       -0.000052 -0.001563 -0.008706 -0.004432 -0.003735  0.008505
  3O   1px        0.000482 -0.007604 -0.018550  0.006314  0.040502 -0.213191
  3O   1py       -0.000217 -0.012723 -0.064086 -0.028137 -0.013894 -0.002252
  3O   2pz        0.000147 -0.001559 -0.008221 -0.004804 -0.003205  0.006450
  3O   2px       -0.001656 -0.005958 -0.011457  0.001693  0.032564 -0.170326
  3O   2py        0.000544 -0.012246 -0.058825 -0.031988 -0.012521 -0.004129
  3O   3pz       -0.000465 -0.000094 -0.000469 -0.000021 -0.000258  0.001288
  3O   3px        0.000937 -0.000452 -0.003056 -0.006694  0.003301 -0.041442
  3O   3py       -0.002915 -0.000768 -0.004060 -0.002033 -0.000857 -0.002944
  3O   1dz2       0.000069  0.000666  0.002812  0.001775  0.000167  0.000180
  3O   1dxz       0.000041  0.000010  0.000030  0.000201  0.000126 -0.000915
  3O   1dyz      -0.000006 -0.000101 -0.000488 -0.000226 -0.000156  0.000229
  3O   1dx2y2    -0.000134 -0.000386 -0.001217 -0.001604  0.000487 -0.000036
  3O   1dxy       0.000204 -0.000368 -0.001529  0.000037  0.000896 -0.006261
[...]
  3O   3py       -0.080101
  3O   1dz2      -0.025556
  3O   1dxz      -0.003268
  3O   1dyz       0.001159
  3O   1dx2y2     0.036570
  3O   1dxy       0.000603
  3O   2dz2       0.195811
  3O   2dxz       0.019154
  3O   2dyz      -0.017325
  3O   2dx2y2    -0.217751
  3O   2dxy      -0.027794
  3O   1f0        0.009055
  3O   1f+1      -0.002732
  3O   1f-1       0.023495
  3O   1f+2      -0.006296
  3O   1f-2       0.003403
  3O   1f+3      -0.011902
  3O   1f-3       0.061342
  4O   1s         0.238660
  4O   2s        -0.297587
  4O   3s         0.336597
  4O   4s        -0.537536
  4O   5s        -0.031098
  4O   1pz       -0.004800
  4O   1px        0.008910
  4O   1py       -0.030603
  4O   2pz        0.030361
  4O   2px       -0.079965
  4O   2py        0.185877
  4O   3pz        0.000464
  4O   3px       -0.095649
  4O   3py       -0.025658
  4O   1dz2      -0.006256
  4O   1dxz      -0.001482
  4O   1dyz       0.002297
  4O   1dx2y2    -0.002259
  4O   1dxy      -0.007693
  4O   2dz2       0.029143
  4O   2dxz       0.007211
  4O   2dyz      -0.014660
  4O   2dx2y2     0.034593
  4O   2dxy       0.044212
  4O   1f0       -0.001920
  4O   1f+1      -0.002736
  4O   1f-1      -0.005659
  4O   1f+2      -0.002988
  4O   1f-2       0.000509
  4O   1f+3      -0.000681
  4O   1f-3       0.007443
  5C   1s         0.018183
  5C   2s        -0.034064
  5C   3s        -0.195917
  5C   4s         0.840016
  5C   5s        -0.334793
  5C   1pz        0.003030
  5C   1px       -0.024755
  5C   1py        0.013918
  5C   2pz       -0.069656
  5C   2px        0.542906
  5C   2py       -0.317946
  5C   3pz       -0.011762
  5C   3px        0.001019
  5C   3py       -0.064697
  5C   1dz2      -0.033453
  5C   1dxz      -0.010440
  5C   1dyz       0.006032
  5C   1dx2y2     0.031448
  5C   1dxy      -0.045153
  5C   2dz2      -0.171777
  5C   2dxz      -0.053421
  5C   2dyz       0.034608
  5C   2dx2y2     0.139807
  5C   2dxy      -0.236326
  5C   1f0        0.017611
  5C   1f+1      -0.060039
  5C   1f-1       0.029936
  5C   1f+2      -0.011888
  5C   1f-2       0.019785
  5C   1f+3      -0.006398
  5C   1f-3       0.082071
  6N   1s        -0.000694
  6N   2s         0.001202
  6N   3s        -0.020535
  6N   4s         0.076609
  6N   5s        -0.063009
  6N   1pz       -0.000396
  6N   1px        0.003901
  6N   1py       -0.001404
  6N   2pz        0.008816
  6N   2px       -0.026379
  6N   2py        0.049108
  6N   3pz       -0.001610
  6N   3px       -0.023601
  6N   3py       -0.017244
  6N   1dz2      -0.001357
  6N   1dxz       0.000458
  6N   1dyz       0.000903
  6N   1dx2y2    -0.004180
  6N   1dxy       0.002641
  6N   2dz2      -0.012741
  6N   2dxz      -0.003621
  6N   2dyz       0.006569
  6N   2dx2y2    -0.012919
  6N   2dxy      -0.021367
  6N   1f0       -0.002442
  6N   1f+1       0.000521
  6N   1f-1      -0.005855
  6N   1f+2      -0.002219
  6N   1f-2      -0.001023
  6N   1f+3      -0.003254
  6N   1f-3       0.002779
  7H   1s         0.007200
  7H   2s         0.182611
  7H   3s         0.115469
  7H   1pz        0.003899
  7H   1px       -0.036084
  7H   1py        0.016551
  8H   1s         0.007517
  8H   2s        -0.024101
  8H   3s         0.044388
  8H   1pz        0.001434
  8H   1px       -0.036292
  8H   1py        0.000252
  9H   1s         0.001400
  9H   2s         0.036203
  9H   3s         0.110021
  9H   1pz        0.011061
  9H   1px        0.000334
  9H   1py        0.004753
 10H   1s         0.001405
 10H   2s         0.036365
 10H   3s         0.107150
 10H   1pz       -0.009109
 10H   1px       -0.000550
 10H   1py        0.007834



                    ********************************
                    * MULLIKEN POPULATION ANALYSIS *
                    ********************************

-----------------------
MULLIKEN ATOMIC CHARGES
-----------------------
   0 C :   -0.206664
   1 C :    0.394559
   2 N :    0.218392
   3 O :   -0.291957
   4 O :   -0.417052
   5 C :   -0.190323
   6 N :   -0.132090
   7 H :    0.203298
   8 H :    0.146769
   9 H :    0.137616
  10 H :    0.137453
Sum of atomic charges:   -0.0000000

--------------------------------
MULLIKEN REDUCED ORBITAL CHARGES
--------------------------------
  0 C s       :     3.206297  s :     3.206297
      pz      :     1.244824  p :     2.917079
      px      :     0.960936
      py      :     0.711319
      dz2     :     0.008019  d :     0.073848
      dxz     :     0.005827
      dyz     :     0.017180
      dx2y2   :     0.021501
      dxy     :     0.021322
      f0      :     0.001648  f :     0.009439
      f+1     :     0.000869
      f-1     :     0.001482
      f+2     :     0.000901
      f-2     :     0.000410
      f+3     :     0.002010
      f-3     :     0.002119
  1 C s       :     3.042323  s :     3.042323
      pz      :     0.780520  p :     2.281133
      px      :     0.742179
      py      :     0.758434
      dz2     :     0.012574  d :     0.257129
      dxz     :     0.038040
      dyz     :     0.063035
      dx2y2   :     0.050699
      dxy     :     0.092780
      f0      :     0.002779  f :     0.024857
      f+1     :     0.001137
      f-1     :     0.002021
      f+2     :     0.002702
      f-2     :     0.003099
      f+3     :     0.008936
      f-3     :     0.004183
  2 N s       :     3.293518  s :     3.293518
      pz      :     1.192929  p :     3.369095
      px      :     1.157591
      py      :     1.018574
      dz2     :     0.007667  d :     0.109715
      dxz     :     0.000863
      dyz     :     0.059087
      dx2y2   :     0.012320
      dxy     :     0.029778
      f0      :     0.001207  f :     0.009280
      f+1     :     0.000216
      f-1     :     0.001301
      f+2     :     0.001919
      f-2     :     0.000204
      f+3     :     0.003002
      f-3     :     0.001431
  3 O s       :     3.766666  s :     3.766666
      pz      :     1.722031  p :     4.484375
      px      :     1.183050
      py      :     1.579294
      dz2     :     0.004366  d :     0.038832
      dxz     :     0.006622
      dyz     :     0.004063
      dx2y2   :     0.007986
      dxy     :     0.015796
      f0      :     0.000278  f :     0.002083
      f+1     :     0.000383
      f-1     :     0.000168
      f+2     :     0.000088
      f-2     :     0.000260
      f+3     :     0.000420
      f-3     :     0.000486
  4 O s       :     3.799534  s :     3.799534
      pz      :     1.468854  p :     4.586768
      px      :     1.781916
      py      :     1.335998
      dz2     :     0.002874  d :     0.028959
      dxz     :     0.000311
      dyz     :     0.010139
      dx2y2   :     0.007933
      dxy     :     0.007701
      f0      :     0.000173  f :     0.001791
      f+1     :     0.000020
      f-1     :     0.000228
      f+2     :     0.000415
      f-2     :     0.000041
      f+3     :     0.000519
      f-3     :     0.000395
  5 C s       :     3.271261  s :     3.271261
      pz      :     1.081797  p :     2.832869
      px      :     0.745482
      py      :     1.005590
      dz2     :     0.007814  d :     0.078445
      dxz     :     0.019571
      dyz     :     0.014554
      dx2y2   :     0.014777
      dxy     :     0.021729
      f0      :     0.001054  f :     0.007749
      f+1     :     0.000556
      f-1     :     0.001244
      f+2     :     0.000706
      f-2     :     0.000818
      f+3     :     0.001921
      f-3     :     0.001449
  6 N s       :     3.900259  s :     3.900259
      pz      :     1.255091  p :     3.161634
      px      :     0.834876
      py      :     1.071666
      dz2     :     0.005606  d :     0.065295
      dxz     :     0.000574
      dyz     :     0.020846
      dx2y2   :     0.014291
      dxy     :     0.023978
      f0      :     0.000677  f :     0.004902
      f+1     :     0.000153
      f-1     :     0.000672
      f+2     :     0.000954
      f-2     :     0.000124
      f+3     :     0.001747
      f-3     :     0.000577
  7 H s       :     0.772982  s :     0.772982
      pz      :     0.006478  p :     0.023720
      px      :     0.012458
      py      :     0.004784
  8 H s       :     0.832798  s :     0.832798
      pz      :     0.004329  p :     0.020433
      px      :     0.007954
      py      :     0.008151
  9 H s       :     0.842124  s :     0.842124
      pz      :     0.011399  p :     0.020259
      px      :     0.003007
      py      :     0.005853
 10 H s       :     0.842276  s :     0.842276
      pz      :     0.008543  p :     0.020271
      px      :     0.003194
      py      :     0.008535


                     *******************************
                     * LOEWDIN POPULATION ANALYSIS *
                     *******************************

----------------------
LOEWDIN ATOMIC CHARGES
----------------------
   0 C :   -0.253639
   1 C :   -0.513121
   2 N :    0.220691
   3 O :    0.229900
   4 O :    0.052294
   5 C :   -0.303638
   6 N :    0.045445
   7 H :    0.168935
   8 H :    0.120541
   9 H :    0.116331
  10 H :    0.116260

-------------------------------
LOEWDIN REDUCED ORBITAL CHARGES
-------------------------------
  0 C s       :     2.789326  s :     2.789326
      pz      :     1.123268  p :     3.032570
      px      :     1.018227
      py      :     0.891075
      dz2     :     0.033289  d :     0.374050
      dxz     :     0.022854
      dyz     :     0.062765
      dx2y2   :     0.127880
      dxy     :     0.127262
      f0      :     0.005454  f :     0.057693
      f+1     :     0.003828
      f-1     :     0.008213
      f+2     :     0.008494
      f-2     :     0.002925
      f+3     :     0.016668
      f-3     :     0.012111
  1 C s       :     2.744900  s :     2.744900
      pz      :     0.767596  p :     2.656253
      px      :     0.918341
      py      :     0.970316
      dz2     :     0.069908  d :     0.959972
      dxz     :     0.116171
      dyz     :     0.185411
      dx2y2   :     0.230689
      dxy     :     0.357792
      f0      :     0.009217  f :     0.151996
      f+1     :     0.007714
      f-1     :     0.012894
      f+2     :     0.020412
      f-2     :     0.019026
      f+3     :     0.057254
      f-3     :     0.025479
  2 N s       :     2.951253  s :     2.951253
      pz      :     1.075644  p :     3.404945
      px      :     1.034049
      py      :     1.295252
      dz2     :     0.034650  d :     0.397100
      dxz     :     0.002541
      dyz     :     0.190306
      dx2y2   :     0.074296
      dxy     :     0.095308
      f0      :     0.002555  f :     0.026010
      f+1     :     0.000318
      f-1     :     0.005030
      f+2     :     0.004382
      f-2     :     0.000351
      f+3     :     0.005330
      f-3     :     0.008046
  3 O s       :     3.254694  s :     3.254694
      pz      :     1.587312  p :     4.400560
      px      :     1.256861
      py      :     1.556386
      dz2     :     0.011165  d :     0.108147
      dxz     :     0.019154
      dyz     :     0.006899
      dx2y2   :     0.029601
      dxy     :     0.041328
      f0      :     0.000587  f :     0.006699
      f+1     :     0.000901
      f-1     :     0.000314
      f+2     :     0.000213
      f-2     :     0.001028
      f+3     :     0.002166
      f-3     :     0.001489
  4 O s       :     3.399945  s :     3.399945
      pz      :     1.377912  p :     4.476463
      px      :     1.613699
      py      :     1.484851
      dz2     :     0.007875  d :     0.065198
      dxz     :     0.000539
      dyz     :     0.015595
      dx2y2   :     0.024096
      dxy     :     0.017092
      f0      :     0.000494  f :     0.006100
      f+1     :     0.000084
      f-1     :     0.000981
      f+2     :     0.000968
      f-2     :     0.000133
      f+3     :     0.001638
      f-3     :     0.001802
  5 C s       :     2.870631  s :     2.870631
      pz      :     1.113797  p :     3.018158
      px      :     0.844176
      py      :     1.060186
      dz2     :     0.051865  d :     0.361555
      dxz     :     0.061672
      dyz     :     0.068903
      dx2y2   :     0.062128
      dxy     :     0.116987
      f0      :     0.005696  f :     0.053294
      f+1     :     0.006761
      f-1     :     0.003906
      f+2     :     0.007249
      f-2     :     0.005462
      f+3     :     0.012713
      f-3     :     0.011507
  6 N s       :     3.368793  s :     3.368793
      pz      :     1.204928  p :     3.384840
      px      :     0.834110
      py      :     1.345802
      dz2     :     0.018892  d :     0.171906
      dxz     :     0.001136
      dyz     :     0.052891
      dx2y2   :     0.051976
      dxy     :     0.047011
      f0      :     0.003356  f :     0.029016
      f+1     :     0.000491
      f-1     :     0.004627
      f+2     :     0.005889
      f-2     :     0.000517
      f+3     :     0.007949
      f-3     :     0.006187
  7 H s       :     0.765730  s :     0.765730
      pz      :     0.018698  p :     0.065335
      px      :     0.033285
      py      :     0.013352
  8 H s       :     0.819531  s :     0.819531
      pz      :     0.013281  p :     0.059928
      px      :     0.021501
      py      :     0.025146
  9 H s       :     0.823013  s :     0.823013
      pz      :     0.034321  p :     0.060656
      px      :     0.008852
      py      :     0.017483
 10 H s       :     0.823037  s :     0.823037
      pz      :     0.026060  p :     0.060703
      px      :     0.009255
      py      :     0.025388


                      *****************************
                      * MAYER POPULATION ANALYSIS *
                      *****************************

  NA   - Mulliken gross atomic population
  ZA   - Total nuclear charge
  QA   - Mulliken gross atomic charge
  VA   - Mayer's total valence
  BVA  - Mayer's bonded valence
  FA   - Mayer's free valence

  ATOM       NA         ZA         QA         VA         BVA        FA
  0 C      6.2067     6.0000    -0.2067     3.6825     3.6825     0.0000
  1 C      5.6054     6.0000     0.3946     4.2455     4.2455    -0.0000
  2 N      6.7816     7.0000     0.2184     3.6288     3.6288     0.0000
  3 O      8.2920     8.0000    -0.2920     2.0641     2.0641     0.0000
  4 O      8.4171     8.0000    -0.4171     2.0869     2.0869    -0.0000
  5 C      6.1903     6.0000    -0.1903     3.8337     3.8337    -0.0000
  6 N      7.1321     7.0000    -0.1321     2.6601     2.6601     0.0000
  7 H      0.7967     1.0000     0.2033     0.9661     0.9661     0.0000
  8 H      0.8532     1.0000     0.1468     0.9612     0.9612     0.0000
  9 H      0.8624     1.0000     0.1376     0.9657     0.9657     0.0000
 10 H      0.8625     1.0000     0.1375     0.9662     0.9662     0.0000

  Mayer bond orders larger than 0.100000
B(  0-C ,  1-C ) :   1.1253 B(  0-C ,  2-N ) :   1.3339 B(  0-C ,  6-N ) :   0.2661 
B(  0-C ,  7-H ) :   0.9244 B(  1-C ,  3-O ) :   1.1537 B(  1-C ,  4-O ) :   1.8995 
B(  2-N ,  6-N ) :   2.2490 B(  3-O ,  5-C ) :   0.8833 B(  5-C ,  8-H ) :   0.9626 
B(  5-C ,  9-H ) :   0.9707 B(  5-C , 10-H ) :   0.9707 

-------
TIMINGS
-------

Total SCF time: 0 days 0 hours 0 min 27 sec 

Total time                  ....      27.359 sec
Sum of individual times     ....      27.021 sec  ( 98.8%)

Fock matrix formation       ....      25.743 sec  ( 94.1%)
  Split-RI-J                ....       1.396 sec  (  5.4% of F)
  Chain of spheres X        ....      21.787 sec  ( 84.6% of F)
  XC integration            ....       1.546 sec  (  6.0% of F)
    Basis function eval.    ....       0.474 sec  ( 30.7% of XC)
    Density eval.           ....       0.437 sec  ( 28.2% of XC)
    XC-Functional eval.     ....       0.055 sec  (  3.6% of XC)
    XC-Potential eval.      ....       0.502 sec  ( 32.5% of XC)
Diagonalization             ....       0.012 sec  (  0.0%)
Density matrix formation    ....       0.002 sec  (  0.0%)
Population analysis         ....       0.030 sec  (  0.1%)
Initial guess               ....       0.014 sec  (  0.1%)
Orbital Transformation      ....       0.000 sec  (  0.0%)
Orbital Orthonormalization  ....       0.006 sec  (  0.0%)
DIIS solution               ....       0.002 sec  (  0.0%)
SOSCF solution              ....       0.009 sec  (  0.0%)
Grid generation             ....       1.209 sec  (  4.4%)

Maximum memory used throughout the entire SCF-calculation: 131.9 MB


-------------------------------------------------------------------------------
                          DFT DISPERSION CORRECTION                            
                                                                               
                              DFTD3 V3.1  Rev 1                                
                          USING Becke-Johnson damping                          
-------------------------------------------------------------------------------
The B3LYP functional is recognized
Active option DFTDOPT                   ...         4   

molecular C6(AA) [au] = 1380.684274 


            DFT-D V3
 parameters
 s6 scaling factor         :     1.0000 
 a1 scaling factor         :     0.3981 
 s8 scaling factor         :     1.9889 
 a2 scaling factor         :     4.4211 
 ad hoc parameters k1-k3   :    16.0000     1.3333    -4.0000 

 Edisp/kcal,au: -8.642824960463  -0.013773216813 
 E6   /kcal   :  -4.124328438 
 E8   /kcal   :  -4.518496522 
 % E8         :  52.280319719 

-------------------------   ----------------
Dispersion correction           -0.013773217
-------------------------   ----------------


-------------------------   --------------------
FINAL SINGLE POINT ENERGY      -376.612900104309
-------------------------   --------------------


                            ***************************************
                            *     ORCA property calculations      *
                            ***************************************

                                    ---------------------
                                    Active property flags
                                    ---------------------
   (+) Dipole Moment


------------------------------------------------------------------------------
                       ORCA ELECTRIC PROPERTIES CALCULATION
------------------------------------------------------------------------------

Dipole Moment Calculation                       ... on
Quadrupole Moment Calculation                   ... off
Polarizability Calculation                      ... off
GBWName                                         ... diazo_c02_sp.gbw
Electron density                                ... diazo_c02_sp.scfp
The origin for moment calculation is the CENTER OF MASS  = (-0.684977, -1.296037 -0.093885)

-------------
DIPOLE MOMENT
-------------
                                X             Y             Z
Electronic contribution:      5.22003      -3.31863      -0.71338
Nuclear contribution   :     -5.31558       2.69296       0.62642
                        -----------------------------------------
Total Dipole Moment    :     -0.09554      -0.62566      -0.08696
                        -----------------------------------------
Magnitude (a.u.)       :      0.63886
Magnitude (Debye)      :      1.62386



--------------------
Rotational spectrum 
--------------------
 
Rotational constants in cm-1:     0.180277     0.063295     0.047272 
Rotational constants in MHz :  5404.558812  1897.528242  1417.176320 

 Dipole components along the rotational axes: 
x,y,z [a.u.] :    -0.401285    -0.497101     0.002396 
x,y,z [Debye]:    -1.019986    -1.263530     0.006089 

 

Timings for individual modules:

Sum of individual times         ...       27.745 sec (=   0.462 min)
GTO integral calculation        ...        0.302 sec (=   0.005 min)   1.1 %
SCF iterations                  ...       27.444 sec (=   0.457 min)  98.9 %
                             ****ORCA TERMINATED NORMALLY****
TOTAL RUN TIME: 0 days 0 hours 0 minutes 28 seconds 144 msec
