
                                 *****************
                                 * O   R   C   A *
                                 *****************

                                            #,                                       
                                            ###                                      
                                            ####                                     
                                            #####                                    
                                            ######                                   
                                           ########,                                 
                                     ,,################,,,,,                         
                               ,,#################################,,                 
                          ,,##########################################,,             
                       ,#########################################, ''#####,          
                    ,#############################################,,   '####,        
                  ,##################################################,,,,####,       
                ,###########''''           ''''###############################       
              ,#####''   ,,,,##########,,,,          '''####'''          '####       
            ,##' ,,,,###########################,,,                        '##       
           ' ,,###''''                  '''############,,,                           
         ,,##''                                '''############,,,,        ,,,,,,###''
      ,#''                                            '''#######################'''  
     '                                                          ''''####''''         
             ,#######,   #######,   ,#######,      ##                                
            ,#'     '#,  ##    ##  ,#'     '#,    #''#        ######   ,####,        
            ##       ##  ##   ,#'  ##            #'  '#       #        #'  '#        
            ##       ##  #######   ##           ,######,      #####,   #    #        
            '#,     ,#'  ##    ##  '#,     ,#' ,#      #,         ##   #,  ,#        
             '#######'   ##     ##  '#######'  #'      '#     #####' # '####'        



                  #######################################################
                  #                        -***-                        #
                  #          Department of theory and spectroscopy      #
                  #    Directorship and core code : Frank Neese         #
                  #        Max Planck Institute fuer Kohlenforschung    #
                  #                Kaiser Wilhelm Platz 1               #
                  #                 D-45470 Muelheim/Ruhr               #
                  #                      Germany                        #
                  #                                                     #
                  #                  All rights reserved                #
                  #                        -***-                        #
                  #######################################################


                         Program Version 5.0.3 -  RELEASE  -


 With contributions from (in alphabetic order):
   Daniel Aravena         : Magnetic Suceptibility
   Michael Atanasov       : Ab Initio Ligand Field Theory (pilot matlab implementation)
   Alexander A. Auer      : GIAO ZORA, VPT2 properties, NMR spectrum
   Ute Becker             : Parallelization
   Giovanni Bistoni       : ED, misc. LED, open-shell LED, HFLD
   Martin Brehm           : Molecular dynamics
   Dmytro Bykov           : SCF Hessian
   Vijay G. Chilkuri      : MRCI spin determinant printing, contributions to CSF-ICE
   Dipayan Datta          : RHF DLPNO-CCSD density
   Achintya Kumar Dutta   : EOM-CC, STEOM-CC
   Dmitry Ganyushin       : Spin-Orbit,Spin-Spin,Magnetic field MRCI
   Miquel Garcia          : C-PCM and meta-GGA Hessian, CC/C-PCM, Gaussian charge scheme
   Yang Guo               : DLPNO-NEVPT2, F12-NEVPT2, CIM, IAO-localization
   Andreas Hansen         : Spin unrestricted coupled pair/coupled cluster methods
   Benjamin Helmich-Paris : MC-RPA, TRAH-SCF, COSX integrals
   Lee Huntington         : MR-EOM, pCC
   Robert Izsak           : Overlap fitted RIJCOSX, COSX-SCS-MP3, EOM
   Marcus Kettner         : VPT2
   Christian Kollmar      : KDIIS, OOCD, Brueckner-CCSD(T), CCSD density, CASPT2, CASPT2-K
   Simone Kossmann        : Meta GGA functionals, TD-DFT gradient, OOMP2, MP2 Hessian
   Martin Krupicka        : Initial AUTO-CI
   Lucas Lang             : DCDCAS
   Marvin Lechner         : AUTO-CI (C++ implementation), FIC-MRCC
   Dagmar Lenk            : GEPOL surface, SMD
   Dimitrios Liakos       : Extrapolation schemes; Compound Job, initial MDCI parallelization
   Dimitrios Manganas     : Further ROCIS development; embedding schemes
   Dimitrios Pantazis     : SARC Basis sets
   Anastasios Papadopoulos: AUTO-CI, single reference methods and gradients
   Taras Petrenko         : DFT Hessian,TD-DFT gradient, ASA, ECA, R-Raman, ABS, FL, XAS/XES, NRVS
   Peter Pinski           : DLPNO-MP2, DLPNO-MP2 Gradient
   Christoph Reimann      : Effective Core Potentials
   Marius Retegan         : Local ZFS, SOC
   Christoph Riplinger    : Optimizer, TS searches, QM/MM, DLPNO-CCSD(T), (RO)-DLPNO pert. Triples
   Tobias Risthaus        : Range-separated hybrids, TD-DFT gradient, RPA, STAB
   Michael Roemelt        : Original ROCIS implementation
   Masaaki Saitow         : Open-shell DLPNO-CCSD energy and density
   Barbara Sandhoefer     : DKH picture change effects
   Avijit Sen             : IP-ROCIS
   Kantharuban Sivalingam : CASSCF convergence, NEVPT2, FIC-MRCI
   Bernardo de Souza      : ESD, SOC TD-DFT
   Georgi Stoychev        : AutoAux, RI-MP2 NMR, DLPNO-MP2 response
   Willem Van den Heuvel  : Paramagnetic NMR
   Boris Wezisla          : Elementary symmetry handling
   Frank Wennmohs         : Technical directorship


 We gratefully acknowledge several colleagues who have allowed us to
 interface, adapt or use parts of their codes:
   Stefan Grimme, W. Hujo, H. Kruse, P. Pracht,  : VdW corrections, initial TS optimization,
                  C. Bannwarth, S. Ehlert          DFT functionals, gCP, sTDA/sTD-DF
   Ed Valeev, F. Pavosevic, A. Kumar             : LibInt (2-el integral package), F12 methods
   Garnet Chan, S. Sharma, J. Yang, R. Olivares  : DMRG
   Ulf Ekstrom                                   : XCFun DFT Library
   Mihaly Kallay                                 : mrcc  (arbitrary order and MRCC methods)
   Jiri Pittner, Ondrej Demel                    : Mk-CCSD
   Frank Weinhold                                : gennbo (NPA and NBO analysis)
   Christopher J. Cramer and Donald G. Truhlar   : smd solvation model
   Lars Goerigk                                  : TD-DFT with DH, B97 family of functionals
   V. Asgeirsson, H. Jonsson                     : NEB implementation
   FAccTs GmbH                                   : IRC, NEB, NEB-TS, DLPNO-Multilevel, CI-OPT
                                                   MM, QMMM, 2- and 3-layer-ONIOM, Crystal-QMMM,
                                                   LR-CPCM, SF, NACMEs, symmetry and pop. for TD-DFT,
                                                   nearIR, NL-DFT gradient (VV10), updates on ESD,
                                                   ML-optimized integration grids
   S Lehtola, MJT Oliveira, MAL Marques          : LibXC Library
   Liviu Ungur et al                             : ANISO software


 Your calculation uses the libint2 library for the computation of 2-el integrals
 For citations please refer to: http://libint.valeyev.net

 Your ORCA version has been built with support for libXC version: 5.1.0
 For citations please refer to: https://tddft.org/programs/libxc/

 This ORCA versions uses:
   CBLAS   interface :  Fast vector & matrix operations
   LAPACKE interface :  Fast linear algebra routines
   SCALAPACK package :  Parallel linear algebra routines
   Shared memory     :  Shared parallel matrices


Your calculation utilizes the atom-pairwise dispersion correction
with the Becke-Johnson damping scheme (D3BJ)
Cite in your paper:
S.Grimme, S.Ehrlich, L.Goerigk, J Comput Chem, (2011), 32, 1456–1465 
S.Grimme, J.Antony, S.Ehrlich and H.Krieg, J.Chem.Phys., 132, (2010), 154104 
   

================================================================================

----- Orbital basis set information -----
Your calculation utilizes the basis: def2-SVP
   F. Weigend and R. Ahlrichs, Phys. Chem. Chem. Phys. 7, 3297 (2005).

----- AuxJ basis set information -----
Your calculation utilizes the auxiliary basis: def2/J
   F. Weigend, Phys. Chem. Chem. Phys. 8, 1057 (2006).

================================================================================
                                        WARNINGS
                       Please study these warnings very carefully!
================================================================================


WARNING: Geometry Optimization
  ===> : Switching off AutoStart
         For restart on a previous wavefunction, please use MOREAD

INFO   : the flag for use of the SHARK integral package has been found!

================================================================================
                                       INPUT FILE
================================================================================
NAME = ketone_c01.inp
|  1> ! b3lyp d3bj def2-svp Freq Opt tightscf cpcm(CH2Cl2)
|  2> %pal
|  3>     nprocs 1
|  4> end
|  5> %MaxCore 1000
|  6> %freq
|  7>     Temp    298.15
|  8> end
|  9> 
| 10> *xyz 0 1
| 11> C    -0.242400  -0.772000   0.003000
| 12> H    -0.105500  -1.843300   0.002800
| 13> C     0.864100   0.070300   0.000700
| 14> N    -1.395400  -0.289200   0.000300
| 15> N    -2.432100   0.144900  -0.002200
| 16> C     2.254200  -0.511800  -0.002200
| 17> O     0.710000   1.276700   0.001000
| 18> H     2.587100  -0.652200  -1.030600
| 19> H     2.934100   0.168800   0.510200
| 20> H     2.246600  -1.473000   0.511600
| 21> *
| 22> 
| 23> 
| 24> 
| 25> 
| 26> 
| 27> 
| 28>                          ****END OF INPUT****
================================================================================

                       *****************************
                       * Geometry Optimization Run *
                       *****************************

Geometry optimization settings:
Update method            Update   .... BFGS
Choice of coordinates    CoordSys .... Z-matrix Internals
Initial Hessian          InHess   .... Almoef's Model

Convergence Tolerances:
Energy Change            TolE     ....  5.0000e-06 Eh
Max. Gradient            TolMAXG  ....  3.0000e-04 Eh/bohr
RMS Gradient             TolRMSG  ....  1.0000e-04 Eh/bohr
Max. Displacement        TolMAXD  ....  4.0000e-03 bohr
RMS Displacement         TolRMSD  ....  2.0000e-03 bohr
Strict Convergence                ....  False
------------------------------------------------------------------------------
                        ORCA OPTIMIZATION COORDINATE SETUP
------------------------------------------------------------------------------

The optimization will be done in new redundant internal coordinates
Making redundant internal coordinates   ...  (new redundants) done
Evaluating the initial hessian          ...  (Almloef) done
Evaluating the coordinates              ...  done
Calculating the B-matrix                .... done
Calculating the G-matrix                .... done
Diagonalizing the G-matrix              .... done
The first mode is                       ....    9
The number of degrees of freedom        ....   24

    -----------------------------------------------------------------
                    Redundant Internal Coordinates


    -----------------------------------------------------------------
         Definition                    Initial Value    Approx d2E/dq
    -----------------------------------------------------------------
      1. B(H   1,C   0)                  1.0800         0.373559   
      2. B(C   2,C   0)                  1.3906         0.623381   
      3. B(N   3,C   0)                  1.2500         0.935899   
      4. B(N   4,N   3)                  1.1239         1.332067   
      5. B(C   5,C   2)                  1.5071         0.406423   
      6. B(O   6,C   2)                  1.2162         1.059641   
      7. B(H   7,C   5)                  1.0900         0.360075   
      8. B(H   8,C   5)                  1.0900         0.360140   
      9. B(H   9,C   5)                  1.0899         0.360189   
     10. A(H   1,C   0,C   2)          119.9971         0.355438   
     11. A(H   1,C   0,N   3)          120.0029         0.378701   
     12. A(C   2,C   0,N   3)          119.9995         0.465120   
     13. A(C   0,C   2,O   6)          120.0001         0.475841   
     14. A(C   0,C   2,C   5)          119.9993         0.402996   
     15. A(C   5,C   2,O   6)          120.0006         0.440143   
     16. L(C   0,N   3,N   4,C   2, 2) 179.9930         0.528255   
     17. L(C   0,N   3,N   4,C   2, 1) 180.0000         0.528255   
     18. A(H   8,C   5,H   9)          109.4759         0.290856   
     19. A(H   7,C   5,H   9)          109.4689         0.290848   
     20. A(C   2,C   5,H   9)          109.4686         0.328864   
     21. A(H   7,C   5,H   8)          109.4784         0.290841   
     22. A(C   2,C   5,H   8)          109.4681         0.328857   
     23. A(C   2,C   5,H   7)          109.4675         0.328847   
     24. D(O   6,C   2,C   0,N   3)      0.2686         0.026908   
     25. D(O   6,C   2,C   0,H   1)   -179.9959         0.026908   
     26. D(C   5,C   2,C   0,H   1)      0.0056         0.026908   
     27. D(C   5,C   2,C   0,N   3)   -179.7298         0.026908   
     28. D(H   7,C   5,C   2,O   6)    -90.0040         0.012242   
     29. D(H   8,C   5,C   2,C   0)   -150.0010         0.012242   
     30. D(H   7,C   5,C   2,C   0)     89.9944         0.012242   
     31. D(H   9,C   5,C   2,C   0)    -29.9988         0.012242   
     32. D(H   9,C   5,C   2,O   6)    150.0028         0.012242   
     33. D(H   8,C   5,C   2,O   6)     30.0006         0.012242   
    -----------------------------------------------------------------

Number of atoms                         .... 10
Number of degrees of freedom            .... 33

         *************************************************************
         *                GEOMETRY OPTIMIZATION CYCLE   1            *
         *************************************************************
---------------------------------
CARTESIAN COORDINATES (ANGSTROEM)
---------------------------------
  C     -0.242400   -0.772000    0.003000
  H     -0.105500   -1.843300    0.002800
  C      0.864100    0.070300    0.000700
  N     -1.395400   -0.289200    0.000300
  N     -2.432100    0.144900   -0.002200
  C      2.254200   -0.511800   -0.002200
  O      0.710000    1.276700    0.001000
  H      2.587100   -0.652200   -1.030600
  H      2.934100    0.168800    0.510200
  H      2.246600   -1.473000    0.511600

----------------------------
CARTESIAN COORDINATES (A.U.)
----------------------------
  NO LB      ZA    FRAG     MASS         X           Y           Z
   0 C     6.0000    0    12.011   -0.458070   -1.458869    0.005669
   1 H     1.0000    0     1.008   -0.199366   -3.483332    0.005291
   2 C     6.0000    0    12.011    1.632912    0.132848    0.001323
   3 N     7.0000    0    14.007   -2.636924   -0.546509    0.000567
   4 N     7.0000    0    14.007   -4.596003    0.273821   -0.004157
   5 C     6.0000    0    12.011    4.259821   -0.967162   -0.004157
   6 O     8.0000    0    15.999    1.341706    2.412613    0.001890
   7 H     1.0000    0     1.008    4.888910   -1.232479   -1.947552
   8 H     1.0000    0     1.008    5.544645    0.318986    0.964138
   9 H     1.0000    0     1.008    4.245459   -2.783567    0.966784

--------------------------------
INTERNAL COORDINATES (ANGSTROEM)
--------------------------------
 C      0   0   0     0.000000000000     0.00000000     0.00000000
 H      1   0   0     1.080011731418     0.00000000     0.00000000
 C      1   2   0     1.390617427620   119.99709762     0.00000000
 N      1   2   3     1.250004851991   120.00288395   179.73541939
 N      4   1   2     1.123919903730   179.99631160   271.00869370
 C      3   1   2     1.507059000172   119.99931291     0.00000000
 O      3   1   2     1.216202228250   120.00009283   180.00407489
 H      6   3   1     1.090018866809   109.46749321    89.99438827
 H      6   3   1     1.089969783985   109.46811963   209.99900753
 H      6   3   1     1.089932860318   109.46858267   330.00118698

---------------------------
INTERNAL COORDINATES (A.U.)
---------------------------
 C      0   0   0     0.000000000000     0.00000000     0.00000000
 H      1   0   0     2.040926393802     0.00000000     0.00000000
 C      1   2   0     2.627886095260   119.99709762     0.00000000
 N      1   2   3     2.362166836335   120.00288395   179.73541939
 N      4   1   2     2.123900814512   179.99631160   271.00869370
 C      3   1   2     2.847928777987   119.99931291     0.00000000
 O      3   1   2     2.298289134857   120.00009283   180.00407489
 H      6   3   1     2.059837139077   109.46749321    89.99438827
 H      6   3   1     2.059744385981   109.46811963   209.99900753
 H      6   3   1     2.059674610362   109.46858267   330.00118698

---------------------
BASIS SET INFORMATION
---------------------
There are 4 groups of distinct atoms

 Group   1 Type C   : 7s4p1d contracted to 3s2p1d pattern {511/31/1}
 Group   2 Type H   : 4s1p contracted to 2s1p pattern {31/1}
 Group   3 Type N   : 7s4p1d contracted to 3s2p1d pattern {511/31/1}
 Group   4 Type O   : 7s4p1d contracted to 3s2p1d pattern {511/31/1}

Atom   0C    basis set group =>   1
Atom   1H    basis set group =>   2
Atom   2C    basis set group =>   1
Atom   3N    basis set group =>   3
Atom   4N    basis set group =>   3
Atom   5C    basis set group =>   1
Atom   6O    basis set group =>   4
Atom   7H    basis set group =>   2
Atom   8H    basis set group =>   2
Atom   9H    basis set group =>   2
---------------------------------
AUXILIARY/J BASIS SET INFORMATION
---------------------------------
There are 4 groups of distinct atoms

 Group   1 Type C   : 12s5p4d2f1g contracted to 6s4p3d1f1g pattern {711111/2111/211/2/1}
 Group   2 Type H   : 5s2p1d contracted to 3s1p1d pattern {311/2/1}
 Group   3 Type N   : 12s5p4d2f1g contracted to 6s4p3d1f1g pattern {711111/2111/211/2/1}
 Group   4 Type O   : 12s5p4d2f1g contracted to 6s4p3d1f1g pattern {711111/2111/211/2/1}

Atom   0C    basis set group =>   1
Atom   1H    basis set group =>   2
Atom   2C    basis set group =>   1
Atom   3N    basis set group =>   3
Atom   4N    basis set group =>   3
Atom   5C    basis set group =>   1
Atom   6O    basis set group =>   4
Atom   7H    basis set group =>   2
Atom   8H    basis set group =>   2
Atom   9H    basis set group =>   2
------------------------------------------------------------------------------
                           ORCA GTO INTEGRAL CALCULATION
                           -- RI-GTO INTEGRALS CHOSEN --
------------------------------------------------------------------------------
------------------------------------------------------------------------------
                   ___                                                        
                  /   \      - P O W E R E D   B Y -                         
                 /     \                                                     
                 |  |  |   _    _      __       _____    __    __             
                 |  |  |  | |  | |    /  \     |  _  \  |  |  /  |          
                  \  \/   | |  | |   /    \    | | | |  |  | /  /          
                 / \  \   | |__| |  /  /\  \   | |_| |  |  |/  /          
                |  |  |   |  __  | /  /__\  \  |    /   |      \           
                |  |  |   | |  | | |   __   |  |    \   |  |\   \          
                \     /   | |  | | |  |  |  |  | |\  \  |  | \   \       
                 \___/    |_|  |_| |__|  |__|  |_| \__\ |__|  \__/        
                                                                              
                      - O R C A' S   B I G   F R I E N D -                    
                                      &                                       
                       - I N T E G R A L  F E E D E R -                       
                                                                              
 v1 FN, 2020, v2 2021                                                         
------------------------------------------------------------------------------


Reading SHARK input file ketone_c01.SHARKINP.tmp ... ok
----------------------
SHARK INTEGRAL PACKAGE
----------------------

Number of atoms                             ...     10
Number of basis functions                   ...    104
Number of shells                            ...     48
Maximum angular momentum                    ...      2
Integral batch strategy                     ... SHARK/LIBINT Hybrid
RI-J (if used) integral strategy            ... SPLIT-RIJ (Revised 2003 algorithm where possible)
Printlevel                                  ...      1
Contraction scheme used                     ... SEGMENTED contraction
Coulomb Range Separation                    ... NOT USED
Exchange Range Separation                   ... NOT USED
Finite Nucleus Model                        ... NOT USED
Auxiliary Coulomb fitting basis             ... AVAILABLE
   # of basis functions in Aux-J            ...    338
   # of shells in Aux-J                     ...    110
   Maximum angular momentum in Aux-J        ...      4
Auxiliary J/K fitting basis                 ... NOT available
Auxiliary Correlation fitting basis         ... NOT available
Auxiliary 'external' fitting basis          ... NOT available
Integral threshold                          ...     2.500000e-11
Primitive cut-off                           ...     2.500000e-12
Primitive pair pre-selection threshold      ...     2.500000e-12

Calculating pre-screening integrals         ... done (  0.0 sec) Dimension = 48
Organizing shell pair data                  ... done (  0.0 sec)
Shell pair information
Total number of shell pairs                 ...      1176
Shell pairs after pre-screening             ...      1127
Total number of primitive shell pairs       ...      4368
Primitive shell pairs kept                  ...      3236
          la=0 lb=0:    334 shell pairs
          la=1 lb=0:    401 shell pairs
          la=1 lb=1:    133 shell pairs
          la=2 lb=0:    147 shell pairs
          la=2 lb=1:     92 shell pairs
          la=2 lb=2:     20 shell pairs

Calculating one electron integrals          ... done (  0.0 sec)
Calculating RI/J V-Matrix + Cholesky decomp.... done (  0.0 sec)
Calculating Nuclear repulsion               ... done (  0.0 sec) ENN=    211.508327908156 Eh

SHARK setup successfully completed in   0.1 seconds

Maximum memory used throughout the entire GTOINT-calculation: 11.9 MB
-------------------------------------------------------------------------------
                                 ORCA SCF
-------------------------------------------------------------------------------

------------
SCF SETTINGS
------------
Hamiltonian:
 Density Functional     Method          .... DFT(GTOs)
 Exchange Functional    Exchange        .... B88
   X-Alpha parameter    XAlpha          ....  0.666667
   Becke's b parameter  XBeta           ....  0.004200
 Correlation Functional Correlation     .... LYP
 LDA part of GGA corr.  LDAOpt          .... VWN-5
 Gradients option       PostSCFGGA      .... off
 Hybrid DFT is turned on
   Fraction HF Exchange ScalHFX         ....  0.200000
   Scaling of DF-GGA-X  ScalDFX         ....  0.720000
   Scaling of DF-GGA-C  ScalDFC         ....  0.810000
   Scaling of DF-LDA-C  ScalLDAC        ....  1.000000
   Perturbative correction              ....  0.000000
   Density functional embedding theory  .... OFF
   NL short-range parameter             ....  4.800000
 RI-approximation to the Coulomb term is turned on
   Number of AuxJ basis functions       .... 338
   RIJ-COSX (HFX calculated with COS-X)).... on


General Settings:
 Integral files         IntName         .... ketone_c01
 Hartree-Fock type      HFTyp           .... RHF
 Total Charge           Charge          ....    0
 Multiplicity           Mult            ....    1
 Number of Electrons    NEL             ....   44
 Basis Dimension        Dim             ....  104
 Nuclear Repulsion      ENuc            ....    211.5083279082 Eh

Convergence Acceleration:
 DIIS                   CNVDIIS         .... on
   Start iteration      DIISMaxIt       ....    12
   Startup error        DIISStart       ....  0.200000
   # of expansion vecs  DIISMaxEq       ....     5
   Bias factor          DIISBfac        ....   1.050
   Max. coefficient     DIISMaxC        ....  10.000
 Trust-Rad. Augm. Hess. CNVTRAH         .... auto
   Auto Start mean grad. ratio tolernc. ....  1.125000
   Auto Start start iteration           ....    20
   Auto Start num. interpolation iter.  ....    10
   Max. Number of Micro iterations      ....    16
   Max. Number of Macro iterations      .... Maxiter - #DIIS iter
   Number of Davidson start vectors     ....     2
   Converg. threshold I  (grad. norm)   ....   1.000e-05
   Converg. threshold II (energy diff.) ....   1.000e-08
   Grad. Scal. Fac. for Micro threshold ....   0.100
   Minimum threshold for Micro iter.    ....   0.010
   NR start threshold (gradient norm)   ....   0.001
   Initial trust radius                 ....   0.400
   Minimum AH scaling param. (alpha)    ....   1.000
   Maximum AH scaling param. (alpha)    .... 1000.000
   Orbital update algorithm             .... Taylor
   White noise on init. David. guess    .... on
   Maximum white noise                  ....   0.010
   Quad. conv. algorithm                .... NR
 SOSCF                  CNVSOSCF        .... on
   Start iteration      SOSCFMaxIt      ....   150
   Startup grad/error   SOSCFStart      ....  0.003300
 Level Shifting         CNVShift        .... on
   Level shift para.    LevelShift      ....    0.2500
   Turn off err/grad.   ShiftErr        ....    0.0010
 Zerner damping         CNVZerner       .... off
 Static damping         CNVDamp         .... on
   Fraction old density DampFac         ....    0.7000
   Max. Damping (<1)    DampMax         ....    0.9800
   Min. Damping (>=0)   DampMin         ....    0.0000
   Turn off err/grad.   DampErr         ....    0.1000
 Fernandez-Rico         CNVRico         .... off

SCF Procedure:
 Maximum # iterations   MaxIter         ....   125
 SCF integral mode      SCFMode         .... Direct
   Integral package                     .... SHARK and LIBINT hybrid scheme
 Reset frequency        DirectResetFreq ....    20
 Integral Threshold     Thresh          ....  2.500e-11 Eh
 Primitive CutOff       TCut            ....  2.500e-12 Eh

Convergence Tolerance:
 Convergence Check Mode ConvCheckMode   .... Total+1el-Energy
 Convergence forced     ConvForced      .... 0
 Energy Change          TolE            ....  1.000e-08 Eh
 1-El. energy change                    ....  1.000e-05 Eh
 Orbital Gradient       TolG            ....  1.000e-05
 Orbital Rotation angle TolX            ....  1.000e-05
 DIIS Error             TolErr          ....  5.000e-07


Diagonalization of the overlap matrix:
Smallest eigenvalue                        ... 2.155e-03
Time for diagonalization                   ...    0.004 sec
Threshold for overlap eigenvalues          ... 1.000e-08
Number of eigenvalues below threshold      ... 0
Time for construction of square roots      ...    0.001 sec
Total time needed                          ...    0.005 sec

Time for model grid setup =    0.069 sec

------------------------------
INITIAL GUESS: MODEL POTENTIAL
------------------------------
Loading Hartree-Fock densities                     ... done
Calculating cut-offs                               ... done
Initializing the effective Hamiltonian             ... done
Setting up the integral package (SHARK)            ... done
Starting the Coulomb interaction                   ... done (   0.0 sec)
Reading the grid                                   ... done
Mapping shells                                     ... done
Starting the XC term evaluation                    ... done (   0.1 sec)
  promolecular density results
     # of electrons  =     43.998491969
     EX              =    -37.950936375
     EC              =     -1.506835512
     EX+EC           =    -39.457771887
Transforming the Hamiltonian                       ... done (   0.0 sec)
Diagonalizing the Hamiltonian                      ... done (   0.0 sec)
Back transforming the eigenvectors                 ... done (   0.0 sec)
Now organizing SCF variables                       ... done
                      ------------------
                      INITIAL GUESS DONE (   0.2 sec)
                      ------------------
-------------------
DFT GRID GENERATION
-------------------

General Integration Accuracy     IntAcc      ... 4.388
Radial Grid Type                 RadialGrid  ... OptM3 with GC (2021)
Angular Grid (max. ang.)         AngularGrid ... 4 (Lebedev-302)
Angular grid pruning method      GridPruning ... 4 (adaptive)
Weight generation scheme         WeightScheme... Becke
Basis function cutoff            BFCut       ... 1.0000e-11
Integration weight cutoff        WCut        ... 1.0000e-14
Angular grids for H and He will be reduced by one unit
Partially contracted basis set               ... off
Rotationally invariant grid construction     ... off

Total number of grid points                  ...    49415
Total number of batches                      ...      777
Average number of points per batch           ...       63
Average number of grid points per atom       ...     4942
Time for grid setup =    0.295 sec

--------------------
COSX GRID GENERATION
--------------------

GRIDX 1
-------
General Integration Accuracy     IntAcc      ... 3.816
Radial Grid Type                 RadialGrid  ... OptM3 with GC (2021)
Angular Grid (max. ang.)         AngularGrid ... 1 (Lebedev-50)
Angular grid pruning method      GridPruning ... 4 (adaptive)
Weight generation scheme         WeightScheme... Becke
Basis function cutoff            BFCut       ... 1.0000e-11
Integration weight cutoff        WCut        ... 1.0000e-14
Angular grids for H and He will be reduced by one unit
Partially contracted basis set               ... on
Rotationally invariant grid construction     ... off

Total number of grid points                  ...     6318
Total number of batches                      ...      104
Average number of points per batch           ...       60
Average number of grid points per atom       ...      632
UseSFitting                                  ... on

GRIDX 2
-------
General Integration Accuracy     IntAcc      ... 4.020
Radial Grid Type                 RadialGrid  ... OptM3 with GC (2021)
Angular Grid (max. ang.)         AngularGrid ... 2 (Lebedev-110)
Angular grid pruning method      GridPruning ... 4 (adaptive)
Weight generation scheme         WeightScheme... Becke
Basis function cutoff            BFCut       ... 1.0000e-11
Integration weight cutoff        WCut        ... 1.0000e-14
Angular grids for H and He will be reduced by one unit
Partially contracted basis set               ... on
Rotationally invariant grid construction     ... off

Total number of grid points                  ...    14155
Total number of batches                      ...      226
Average number of points per batch           ...       62
Average number of grid points per atom       ...     1416
UseSFitting                                  ... on

GRIDX 3
-------
General Integration Accuracy     IntAcc      ... 4.338
Radial Grid Type                 RadialGrid  ... OptM3 with GC (2021)
Angular Grid (max. ang.)         AngularGrid ... 3 (Lebedev-194)
Angular grid pruning method      GridPruning ... 4 (adaptive)
Weight generation scheme         WeightScheme... Becke
Basis function cutoff            BFCut       ... 1.0000e-11
Integration weight cutoff        WCut        ... 1.0000e-14
Angular grids for H and He will be reduced by one unit
Partially contracted basis set               ... on
Rotationally invariant grid construction     ... off

Total number of grid points                  ...    31263
Total number of batches                      ...      492
Average number of points per batch           ...       63
Average number of grid points per atom       ...     3126
UseSFitting                                  ... on

Time for X-Grid setup             =    0.348 sec


--------------------
CPCM SOLVATION MODEL
--------------------
CPCM parameters:
  Epsilon                                         ...       9.0800
  Refrac                                          ...       1.4240
  Rsolv                                           ...       1.3000
  Surface type                                    ... GAUSSIAN VDW
  Epsilon function type                           ...         CPCM
Radii:
 Radius for C  used is    3.8550 Bohr (=   2.0400 Ang.)
 Radius for H  used is    2.4944 Bohr (=   1.3200 Ang.)
 Radius for N  used is    3.5149 Bohr (=   1.8600 Ang.)
 Radius for O  used is    3.4469 Bohr (=   1.8240 Ang.)
Calculating surface                               ...        done! (  0.0s)
GEPOL surface points                              ...          644
GEPOL Volume                                      ...     716.8337
GEPOL Surface-area                                ...     449.9109
Calculating surface distance matrix               ...        done! (  0.0s)
Performing Cholesky decomposition & store         ...        done! (  0.0s)
Overall time for CPCM initialization              ...                 0.0s
--------------
SCF ITERATIONS
--------------
ITER       Energy         Delta-E        Max-DP      RMS-DP      [F,P]     Damp
               ***  Starting incremental Fock matrix formation  ***
  0   -300.8394579089   0.000000000000 0.10695535  0.00412813  0.2858935 0.7000
  1   -300.9196624371  -0.080204528120 0.06643185  0.00281395  0.1152805 0.7000
                               ***Turning on DIIS***
  2   -300.9494782959  -0.029815858843 0.08256658  0.00402440  0.0385483 0.0000
  3   -300.9967957734  -0.047317477541 0.04939622  0.00216156  0.0678503 0.0000
  4   -301.0076951648  -0.010899391343 0.01084018  0.00055006  0.0136404 0.0000
  5   -301.0084742070  -0.000779042232 0.00505292  0.00022045  0.0059673 0.0000
                      *** Initiating the SOSCF procedure ***
                           *** Shutting down DIIS ***
                      *** Re-Reading the Fockian *** 
                      *** Removing any level shift *** 
ITER      Energy       Delta-E        Grad      Rot      Max-DP    RMS-DP
  6   -301.00855085  -0.0000766455  0.000573  0.000573  0.001875  0.000079
               *** Restarting incremental Fock matrix formation ***
  7   -301.00857085  -0.0000199959  0.000320  0.001713  0.001457  0.000064
  8   -301.00857062   0.0000002275  0.000540  0.000906  0.000876  0.000036
  9   -301.00857369  -0.0000030685  0.000135  0.000570  0.000546  0.000026
 10   -301.00857385  -0.0000001624  0.000088  0.000104  0.000305  0.000008
 11   -301.00857407  -0.0000002223  0.000024  0.000092  0.000119  0.000005
 12   -301.00857408  -0.0000000021  0.000022  0.000027  0.000051  0.000002
 13   -301.00857409  -0.0000000107  0.000008  0.000029  0.000020  0.000001
 14   -301.00857409  -0.0000000013  0.000005  0.000013  0.000012  0.000000
 15   -301.00857409  -0.0000000010  0.000003  0.000011  0.000011  0.000000
                  ***Gradient check signals convergence***
              ***Rediagonalizing the Fockian in SOSCF/NRSCF***

               *****************************************************
               *                     SUCCESS                       *
               *           SCF CONVERGED AFTER  16 CYCLES          *
               *****************************************************

Old exchange energy                            =     -7.668126770 Eh
New exchange energy                            =     -7.668132700 Eh
Exchange energy change after final integration =     -0.000005930 Eh
Total energy after final integration           =   -301.008580020 Eh
Final COS-X integration done in                =     2.246 sec

----------------
TOTAL SCF ENERGY
----------------

Total Energy       :         -301.00858002 Eh           -8190.85988 eV

Components:
Nuclear Repulsion  :          211.50832791 Eh            5755.43420 eV
Electronic Energy  :         -512.51690793 Eh          -13946.29408 eV
One Electron Energy:         -826.46674833 Eh          -22489.30356 eV
Two Electron Energy:          313.94984041 Eh            8543.00948 eV
Max COSX asymmetry :            0.00000144 Eh               0.00004 eV
CPCM Dielectric    :           -0.01086484 Eh              -0.29565 eV

Virial components:
Potential Energy   :         -599.86021836 Eh          -16323.02639 eV
Kinetic Energy     :          298.85163834 Eh            8132.16651 eV
Virial Ratio       :            2.00721743


DFT components:
N(Alpha)           :       22.000000974357 electrons
N(Beta)            :       22.000000974357 electrons
N(Total)           :       44.000001948715 electrons
E(X)               :      -30.537462998659 Eh       
E(C)               :       -1.780712608537 Eh       
E(XC)              :      -32.318175607196 Eh       
DFET-embed. en.    :        0.000000000000 Eh       
CPCM Solvation Model Properties:
Surface-charge          :           -0.01163165
Charge-correction       :           -0.00006046 Eh              -0.00165 eV
Free-energy (cav+disp)  :  This term is not implemented in the current solvation scheme

---------------
SCF CONVERGENCE
---------------

  Last Energy change         ...   -3.6988e-10  Tolerance :   1.0000e-08
  Last MAX-Density change    ...    4.8850e-15  Tolerance :   1.0000e-07
  Last RMS-Density change    ...    8.6134e-17  Tolerance :   5.0000e-09
  Last Orbital Gradient      ...    7.8437e-07  Tolerance :   1.0000e-05
  Last Orbital Rotation      ...    4.6229e-06  Tolerance :   1.0000e-05

             **** THE GBW FILE WAS UPDATED (ketone_c01.gbw) ****
             **** DENSITY ketone_c01.scfp WAS UPDATED ****
             **** ENERGY FILE WAS UPDATED (ketone_c01.en.tmp) ****
             **** THE GBW FILE WAS UPDATED (ketone_c01.gbw) ****
             **** DENSITY ketone_c01.scfp WAS UPDATED ****
----------------
ORBITAL ENERGIES
----------------

  NO   OCC          E(Eh)            E(eV) 
   0   2.0000     -19.101005      -519.7648 
   1   2.0000     -14.487344      -394.2207 
   2   2.0000     -14.422042      -392.4437 
   3   2.0000     -10.264448      -279.3098 
   4   2.0000     -10.220662      -278.1183 
   5   2.0000     -10.180142      -277.0157 
   6   2.0000      -1.132771       -30.8243 
   7   2.0000      -1.022843       -27.8330 
   8   2.0000      -0.883778       -24.0488 
   9   2.0000      -0.741718       -20.1832 
  10   2.0000      -0.632670       -17.2158 
  11   2.0000      -0.553280       -15.0555 
  12   2.0000      -0.516649       -14.0587 
  13   2.0000      -0.480726       -13.0812 
  14   2.0000      -0.465313       -12.6618 
  15   2.0000      -0.438023       -11.9192 
  16   2.0000      -0.433847       -11.8056 
  17   2.0000      -0.409935       -11.1549 
  18   2.0000      -0.386023       -10.5042 
  19   2.0000      -0.358233        -9.7480 
  20   2.0000      -0.249207        -6.7813 
  21   2.0000      -0.245472        -6.6796 
  22   0.0000      -0.062853        -1.7103 
  23   0.0000      -0.041515        -1.1297 
  24   0.0000       0.079384         2.1602 
  25   0.0000       0.082572         2.2469 
  26   0.0000       0.123128         3.3505 
  27   0.0000       0.144883         3.9425 
  28   0.0000       0.163589         4.4515 
  29   0.0000       0.211072         5.7436 
  30   0.0000       0.232572         6.3286 
  31   0.0000       0.291014         7.9189 
  32   0.0000       0.321891         8.7591 
  33   0.0000       0.361083         9.8256 
  34   0.0000       0.427660        11.6372 
  35   0.0000       0.455148        12.3852 
  36   0.0000       0.497189        13.5292 
  37   0.0000       0.513234        13.9658 
  38   0.0000       0.529080        14.3970 
  39   0.0000       0.559428        15.2228 
  40   0.0000       0.591786        16.1033 
  41   0.0000       0.618783        16.8379 
  42   0.0000       0.623701        16.9718 
  43   0.0000       0.635066        17.2810 
  44   0.0000       0.660742        17.9797 
  45   0.0000       0.674093        18.3430 
  46   0.0000       0.681194        18.5362 
  47   0.0000       0.687893        18.7185 
  48   0.0000       0.700631        19.0651 
  49   0.0000       0.729643        19.8546 
  50   0.0000       0.771946        21.0057 
  51   0.0000       0.817973        22.2582 
  52   0.0000       0.839520        22.8445 
  53   0.0000       0.860700        23.4208 
  54   0.0000       0.962393        26.1880 
  55   0.0000       1.020739        27.7757 
  56   0.0000       1.023297        27.8453 
  57   0.0000       1.061731        28.8912 
  58   0.0000       1.108097        30.1528 
  59   0.0000       1.173933        31.9443 
  60   0.0000       1.204675        32.7809 
  61   0.0000       1.357037        36.9269 
  62   0.0000       1.383990        37.6603 
  63   0.0000       1.414328        38.4858 
  64   0.0000       1.440916        39.2093 
  65   0.0000       1.515194        41.2305 
  66   0.0000       1.597628        43.4737 
  67   0.0000       1.613864        43.9155 
  68   0.0000       1.662435        45.2371 
  69   0.0000       1.739465        47.3332 
  70   0.0000       1.762059        47.9481 
  71   0.0000       1.780064        48.4380 
  72   0.0000       1.788324        48.6628 
  73   0.0000       1.808373        49.2083 
  74   0.0000       1.832654        49.8690 
  75   0.0000       1.857536        50.5461 
  76   0.0000       1.918894        52.2158 
  77   0.0000       1.969481        53.5923 
  78   0.0000       1.996918        54.3389 
  79   0.0000       2.070447        56.3397 
  80   0.0000       2.099360        57.1265 
  81   0.0000       2.200965        59.8913 
  82   0.0000       2.240685        60.9722 
  83   0.0000       2.259843        61.4934 
  84   0.0000       2.311801        62.9073 
  85   0.0000       2.380581        64.7789 
  86   0.0000       2.401773        65.3556 
  87   0.0000       2.437069        66.3160 
  88   0.0000       2.501800        68.0774 
  89   0.0000       2.520564        68.5880 
  90   0.0000       2.687040        73.1181 
  91   0.0000       2.724926        74.1490 
  92   0.0000       2.742724        74.6333 
  93   0.0000       2.762129        75.1614 
  94   0.0000       2.866330        77.9968 
  95   0.0000       2.893568        78.7380 
  96   0.0000       2.932769        79.8047 
  97   0.0000       3.111142        84.6585 
  98   0.0000       3.139424        85.4281 
  99   0.0000       3.262841        88.7864 
 100   0.0000       3.271581        89.0242 
 101   0.0000       3.578123        97.3657 
 102   0.0000       3.658806        99.5612 
 103   0.0000       3.857929       104.9796 

                    ********************************
                    * MULLIKEN POPULATION ANALYSIS *
                    ********************************

-----------------------
MULLIKEN ATOMIC CHARGES
-----------------------
   0 C :   -0.132335
   1 H :    0.067699
   2 C :   -0.008251
   3 N :    0.278546
   4 N :   -0.079683
   5 C :    0.064598
   6 O :   -0.302313
   7 H :    0.054650
   8 H :    0.030810
   9 H :    0.026278
Sum of atomic charges:    0.0000000

--------------------------------
MULLIKEN REDUCED ORBITAL CHARGES
--------------------------------
  0 C s       :     3.107741  s :     3.107741
      pz      :     1.247925  p :     2.977939
      px      :     0.835080
      py      :     0.894933
      dz2     :     0.004127  d :     0.046656
      dxz     :     0.008455
      dyz     :     0.003269
      dx2y2   :     0.015634
      dxy     :     0.015170
  1 H s       :     0.907735  s :     0.907735
      pz      :     0.006321  p :     0.024566
      px      :     0.001969
      py      :     0.016276
  2 C s       :     3.132906  s :     3.132906
      pz      :     0.814498  p :     2.774067
      px      :     1.008265
      py      :     0.951303
      dz2     :     0.005214  d :     0.101279
      dxz     :     0.007838
      dyz     :     0.021545
      dx2y2   :     0.023998
      dxy     :     0.042683
  3 N s       :     3.351529  s :     3.351529
      pz      :     1.232031  p :     3.312918
      px      :     0.924659
      py      :     1.156228
      dz2     :     0.003034  d :     0.057007
      dxz     :     0.025852
      dyz     :     0.004547
      dx2y2   :     0.012105
      dxy     :     0.011469
  4 N s       :     3.862307  s :     3.862307
      pz      :     1.263260  p :     3.172458
      px      :     1.039430
      py      :     0.869768
      dz2     :     0.004107  d :     0.044917
      dxz     :     0.011417
      dyz     :     0.002021
      dx2y2   :     0.013721
      dxy     :     0.013651
  5 C s       :     2.925686  s :     2.925686
      pz      :     1.021501  p :     2.984170
      px      :     0.968696
      py      :     0.993974
      dz2     :     0.005809  d :     0.025545
      dxz     :     0.003563
      dyz     :     0.004706
      dx2y2   :     0.006098
      dxy     :     0.005369
  6 O s       :     3.723424  s :     3.723424
      pz      :     1.393073  p :     4.561600
      px      :     1.810650
      py      :     1.357876
      dz2     :     0.001951  d :     0.017289
      dxz     :     0.000097
      dyz     :     0.005305
      dx2y2   :     0.006028
      dxy     :     0.003907
  7 H s       :     0.920325  s :     0.920325
      pz      :     0.013672  p :     0.025025
      px      :     0.005733
      py      :     0.005620
  8 H s       :     0.945531  s :     0.945531
      pz      :     0.007172  p :     0.023659
      px      :     0.007857
      py      :     0.008631
  9 H s       :     0.949510  s :     0.949510
      pz      :     0.007281  p :     0.024212
      px      :     0.004381
      py      :     0.012550


                     *******************************
                     * LOEWDIN POPULATION ANALYSIS *
                     *******************************

----------------------
LOEWDIN ATOMIC CHARGES
----------------------
   0 C :   -0.168786
   1 H :    0.060174
   2 C :    0.042409
   3 N :    0.269837
   4 N :   -0.023237
   5 C :   -0.061792
   6 O :   -0.246204
   7 H :    0.051508
   8 H :    0.040247
   9 H :    0.035844

-------------------------------
LOEWDIN REDUCED ORBITAL CHARGES
-------------------------------
  0 C s       :     2.830160  s :     2.830160
      pz      :     1.211037  p :     3.208468
      px      :     0.955001
      py      :     1.042431
      dz2     :     0.012128  d :     0.130158
      dxz     :     0.018188
      dyz     :     0.005671
      dx2y2   :     0.047986
      dxy     :     0.046185
  1 H s       :     0.862675  s :     0.862675
      pz      :     0.022252  p :     0.077152
      px      :     0.009073
      py      :     0.045827
  2 C s       :     2.854764  s :     2.854764
      pz      :     0.796116  p :     2.866961
      px      :     1.041682
      py      :     1.029164
      dz2     :     0.012718  d :     0.235865
      dxz     :     0.014297
      dyz     :     0.042117
      dx2y2   :     0.060316
      dxy     :     0.106419
  3 N s       :     3.049311  s :     3.049311
      pz      :     1.174095  p :     3.557999
      px      :     1.228735
      py      :     1.155169
      dz2     :     0.007118  d :     0.122854
      dxz     :     0.053774
      dyz     :     0.009572
      dx2y2   :     0.027398
      dxy     :     0.024992
  4 N s       :     3.468676  s :     3.468676
      pz      :     1.272932  p :     3.470417
      px      :     1.266508
      py      :     0.930977
      dz2     :     0.010016  d :     0.084144
      dxz     :     0.018083
      dyz     :     0.003192
      dx2y2   :     0.026396
      dxy     :     0.026457
  5 C s       :     2.838728  s :     2.838728
      pz      :     1.068773  p :     3.154990
      px      :     1.023457
      py      :     1.062760
      dz2     :     0.015132  d :     0.068074
      dxz     :     0.009266
      dyz     :     0.012271
      dx2y2   :     0.016216
      dxy     :     0.015188
  6 O s       :     3.539476  s :     3.539476
      pz      :     1.394666  p :     4.676802
      px      :     1.807046
      py      :     1.475090
      dz2     :     0.004116  d :     0.029926
      dxz     :     0.000109
      dyz     :     0.006577
      dx2y2   :     0.012202
      dxy     :     0.006921
  7 H s       :     0.880144  s :     0.880144
      pz      :     0.038235  p :     0.068347
      px      :     0.016522
      py      :     0.013590
  8 H s       :     0.893073  s :     0.893073
      pz      :     0.018758  p :     0.066680
      px      :     0.024203
      py      :     0.023719
  9 H s       :     0.896239  s :     0.896239
      pz      :     0.019134  p :     0.067917
      px      :     0.013006
      py      :     0.035777


                      *****************************
                      * MAYER POPULATION ANALYSIS *
                      *****************************

  NA   - Mulliken gross atomic population
  ZA   - Total nuclear charge
  QA   - Mulliken gross atomic charge
  VA   - Mayer's total valence
  BVA  - Mayer's bonded valence
  FA   - Mayer's free valence

  ATOM       NA         ZA         QA         VA         BVA        FA
  0 C      6.1323     6.0000    -0.1323     3.6251     3.6251     0.0000
  1 H      0.9323     1.0000     0.0677     1.0029     1.0029    -0.0000
  2 C      6.0083     6.0000    -0.0083     4.3933     4.3933     0.0000
  3 N      6.7215     7.0000     0.2785     3.6206     3.6206     0.0000
  4 N      7.0797     7.0000    -0.0797     2.5771     2.5771     0.0000
  5 C      5.9354     6.0000     0.0646     3.8514     3.8514     0.0000
  6 O      8.3023     8.0000    -0.3023     2.2021     2.2021     0.0000
  7 H      0.9453     1.0000     0.0547     0.9987     0.9987    -0.0000
  8 H      0.9692     1.0000     0.0308     1.0166     1.0166     0.0000
  9 H      0.9737     1.0000     0.0263     0.9972     0.9972    -0.0000

  Mayer bond orders larger than 0.100000
B(  0-C ,  1-H ) :   0.9335 B(  0-C ,  2-C ) :   1.0989 B(  0-C ,  3-N ) :   1.3882 
B(  0-C ,  4-N ) :   0.2436 B(  2-C ,  5-C ) :   1.0442 B(  2-C ,  6-O ) :   2.0728 
B(  3-N ,  4-N ) :   2.1629 B(  5-C ,  7-H ) :   0.9434 B(  5-C ,  8-H ) :   0.9507 
B(  5-C ,  9-H ) :   0.9520 

-------
TIMINGS
-------

Total SCF time: 0 days 0 hours 0 min 22 sec 

Total time                  ....      22.755 sec
Sum of individual times     ....      22.615 sec  ( 99.4%)

Fock matrix formation       ....      21.747 sec  ( 95.6%)
  Split-RI-J                ....       1.189 sec  (  5.5% of F)
  Chain of spheres X        ....      14.302 sec  ( 65.8% of F)
  XC integration            ....       4.054 sec  ( 18.6% of F)
    Basis function eval.    ....       1.593 sec  ( 39.3% of XC)
    Density eval.           ....       0.927 sec  ( 22.9% of XC)
    XC-Functional eval.     ....       0.339 sec  (  8.4% of XC)
    XC-Potential eval.      ....       0.837 sec  ( 20.6% of XC)
Diagonalization             ....       0.012 sec  (  0.1%)
Density matrix formation    ....       0.002 sec  (  0.0%)
Population analysis         ....       0.011 sec  (  0.0%)
Initial guess               ....       0.111 sec  (  0.5%)
Orbital Transformation      ....       0.000 sec  (  0.0%)
Orbital Orthonormalization  ....       0.000 sec  (  0.0%)
DIIS solution               ....       0.007 sec  (  0.0%)
SOSCF solution              ....       0.014 sec  (  0.1%)
Grid generation             ....       0.712 sec  (  3.1%)

Maximum memory used throughout the entire SCF-calculation: 55.6 MB


-------------------------------------------------------------------------------
                          DFT DISPERSION CORRECTION                            
                                                                               
                              DFTD3 V3.1  Rev 1                                
                          USING Becke-Johnson damping                          
-------------------------------------------------------------------------------
The B3LYP functional is recognized
Active option DFTDOPT                   ...         4   

molecular C6(AA) [au] = 1154.634079 


            DFT-D V3
 parameters
 s6 scaling factor         :     1.0000 
 a1 scaling factor         :     0.3981 
 s8 scaling factor         :     1.9889 
 a2 scaling factor         :     4.4211 
 ad hoc parameters k1-k3   :    16.0000     1.3333    -4.0000 

 Edisp/kcal,au: -8.009082970452  -0.012763284774 
 E6   /kcal   :  -3.803652650 
 E8   /kcal   :  -4.205430320 
 % E8         :  52.508262630 

-------------------------   ----------------
Dispersion correction           -0.012763285
-------------------------   ----------------


-------------------------   --------------------
FINAL SINGLE POINT ENERGY      -301.021343304748
-------------------------   --------------------

------------------------------------------------------------------------------
                         ORCA SCF GRADIENT CALCULATION
------------------------------------------------------------------------------

 ... reading COSX grid (gridx3)
Gradient of the Kohn-Sham DFT energy:
Kohn-Sham wavefunction type      ... RKS
Hartree-Fock exchange scaling    ...    0.200
Number of operators              ...    1
Number of atoms                  ...   10
Basis set dimensions             ...  104
Integral neglect threshold       ... 2.5e-11
Integral primitive cutoff        ... 2.5e-12
SHARK Integral package           ... ON

Nuc. rep. gradient       (SHARK) ... done (  0.0 sec)
HCore & Overlap gradient (SHARK) ... done (  0.0 sec)
RI-J gradient            (SHARK) ... done (  0.3 sec)
COSX-gradient                    ... done (  2.7 sec)
Exchange-correlation gradient    ... done
Dispersion correction            ... done

------------------
CARTESIAN GRADIENT
------------------

   1   C   :   -0.038945164    0.063059228    0.000261095
   2   H   :    0.006896374    0.010358550   -0.000181313
   3   C   :   -0.038021955   -0.029749897   -0.000596645
   4   N   :    0.051976517   -0.013035608    0.000802426
   5   N   :    0.019779599   -0.011025349   -0.000178746
   6   C   :    0.008341809    0.007661574   -0.006188849
   7   O   :    0.000204580   -0.032606398    0.000501950
   8   H   :   -0.003197354    0.001937259    0.007528520
   9   H   :   -0.002809719   -0.004875477   -0.001043625
  10   H   :   -0.004321632    0.008276858   -0.000932055

Difference to translation invariance:
           :   -0.0000969439    0.0000007392   -0.0000272420

Difference to rotation invariance:
           :    0.0000170320   -0.0000023505   -0.0002695809

Norm of the cartesian gradient     ...    0.1130738907
RMS gradient                       ...    0.0206443735
MAX gradient                       ...    0.0630592280

-------
TIMINGS
-------

Total SCF gradient time            ...        5.174 sec

One electron gradient       ....       0.038 sec  (  0.7%)
RI-J Coulomb gradient       ....       0.282 sec  (  5.4%)
COSX gradient               ....       2.684 sec  ( 51.9%)
XC gradient                 ....       1.718 sec  ( 33.2%)
CPCM gradient               ....       0.119 sec  (  2.3%)
   A-Matrix (El+Nuc)        ....       0.024 sec  (  0.5%)
   Potential                ....       0.095 sec  (  1.8%)

Maximum memory used throughout the entire SCFGRAD-calculation: 43.9 MB
------------------------------------------------------------------------------
                         ORCA GEOMETRY RELAXATION STEP
------------------------------------------------------------------------------

Reading the OPT-File                    .... done
Getting information on internals        .... done
Copying old internal coords+grads       .... done
Making the new internal coordinates     .... (new redundants).... done
Validating the new internal coordinates .... (new redundants).... done
Calculating the B-matrix                .... done
Calculating the G,G- and P matrices     .... done
Transforming gradient to internals      .... done
Projecting the internal gradient        .... done
Number of atoms                         ....  10
Number of internal coordinates          ....  33
Current Energy                          ....  -301.021343305 Eh
Current gradient norm                   ....     0.113073891 Eh/bohr
Maximum allowed component of the step   ....  0.300
Current trust radius                    ....  0.300
Evaluating the initial hessian          ....  (Almloef) done
Projecting the Hessian                  .... done
Forming the augmented Hessian           .... done
Diagonalizing the augmented Hessian     .... done
Last element of RFO vector              ....  0.987873857
Lowest eigenvalues of augmented Hessian:
 -0.015927551  0.012243510  0.018141029  0.026909963  0.026912861
Length of the computed step             ....  0.157164431
The final length of the internal step   ....  0.157164431
Converting the step to cartesian space:
 Initial RMS(Int)=    0.0273588157
Transforming coordinates:
 Iter   0:  RMS(Cart)=    0.0443385109 RMS(Int)=    1.0930218107
 Iter   1:  RMS(Cart)=    0.0007622211 RMS(Int)=    0.0003854998
 Iter   2:  RMS(Cart)=    0.0000248151 RMS(Int)=    0.0000279890
 Iter   3:  RMS(Cart)=    0.0000107205 RMS(Int)=    0.0000126177
 Iter   4:  RMS(Cart)=    0.0000057620 RMS(Int)=    0.0000064915
 Iter   5:  RMS(Cart)=    0.0000029722 RMS(Int)=    0.0000033394
 Iter   6:  RMS(Cart)=    0.0000015291 RMS(Int)=    0.0000017178
 Iter   7:  RMS(Cart)=    0.0000007866 RMS(Int)=    0.0000008836
 Iter   8:  RMS(Cart)=    0.0000004046 RMS(Int)=    0.0000004545
 Iter   9:  RMS(Cart)=    0.0000002081 RMS(Int)=    0.0000002338
 Iter  10:  RMS(Cart)=    0.0000001071 RMS(Int)=    0.0000001203
 Iter  11:  RMS(Cart)=    0.0000000551 RMS(Int)=    0.0000000619
done
Storing new coordinates                 .... done

                                .--------------------.
          ----------------------|Geometry convergence|-------------------------
          Item                value                   Tolerance       Converged
          ---------------------------------------------------------------------
          RMS gradient        0.0191471188            0.0001000000      NO
          MAX gradient        0.0755044485            0.0003000000      NO
          RMS step            0.0273588157            0.0020000000      NO
          MAX step            0.0962132081            0.0040000000      NO
          ........................................................
          Max(Bonds)      0.0509      Max(Angles)    2.29
          Max(Dihed)        1.34      Max(Improp)    0.00
          ---------------------------------------------------------------------

The optimization has not yet converged - more geometry cycles are needed


    ---------------------------------------------------------------------------
                         Redundant Internal Coordinates
                            (Angstroem and degrees)

        Definition                    Value    dE/dq     Step     New-Value
    ----------------------------------------------------------------------------
     1. B(H   1,C   0)                1.0800 -0.009397  0.0128    1.0928   
     2. B(C   2,C   0)                1.3906 -0.061510  0.0509    1.4415   
     3. B(N   3,C   0)                1.2500 -0.075504  0.0420    1.2920   
     4. B(N   4,N   3)                1.1239 -0.022514  0.0088    1.1328   
     5. B(C   5,C   2)                1.5071 -0.006822  0.0085    1.5156   
     6. B(O   6,C   2)                1.2162 -0.032370  0.0159    1.2321   
     7. B(H   7,C   5)                1.0900 -0.008328  0.0117    1.1017   
     8. B(H   8,C   5)                1.0900 -0.005278  0.0074    1.0974   
     9. B(H   9,C   5)                1.0899 -0.007712  0.0108    1.1008   
    10. A(H   1,C   0,C   2)          120.00 -0.008567    1.29    121.29   
    11. A(H   1,C   0,N   3)          120.00  0.008102   -1.21    118.80   
    12. A(C   2,C   0,N   3)          120.00  0.000465   -0.08    119.92   
    13. A(C   0,C   2,O   6)          120.00 -0.013294    1.65    121.65   
    14. A(C   0,C   2,C   5)          120.00  0.017567   -2.29    117.71   
    15. A(C   5,C   2,O   6)          120.00 -0.004274    0.64    120.64   
    16. L(C   0,N   3,N   4,C   2, 2) 179.99 -0.000130    0.01    180.01   
    17. L(C   0,N   3,N   4,C   2, 1) 180.00  0.005384   -0.57    179.43   
    18. A(H   8,C   5,H   9)          109.48  0.000473    0.24    109.72   
    19. A(H   7,C   5,H   9)          109.47  0.003826   -0.69    108.78   
    20. A(C   2,C   5,H   9)          109.47 -0.007901    1.47    110.94   
    21. A(H   7,C   5,H   8)          109.48  0.000586   -0.42    109.06   
    22. A(C   2,C   5,H   8)          109.47  0.002840   -0.46    109.01   
    23. A(C   2,C   5,H   7)          109.47  0.000175   -0.15    109.31   
    24. D(O   6,C   2,C   0,N   3)      0.27  0.000068   -0.21      0.06   
    25. D(O   6,C   2,C   0,H   1)   -180.00  0.000176   -0.35   -180.35   
    26. D(C   5,C   2,C   0,H   1)      0.01 -0.000498    0.78      0.79   
    27. D(C   5,C   2,C   0,N   3)   -179.73 -0.000606    0.93   -178.80   
    28. D(H   7,C   5,C   2,O   6)    -90.00 -0.001122    0.68    -89.32   
    29. D(H   8,C   5,C   2,C   0)   -150.00  0.002115   -1.34   -151.34   
    30. D(H   7,C   5,C   2,C   0)     89.99 -0.000448   -0.45     89.54   
    31. D(H   9,C   5,C   2,C   0)    -30.00 -0.000404   -0.42    -30.42   
    32. D(H   9,C   5,C   2,O   6)    150.00 -0.001079    0.72    150.72   
    33. D(H   8,C   5,C   2,O   6)     30.00  0.001441   -0.20     29.80   
    ----------------------------------------------------------------------------

         *************************************************************
         *                GEOMETRY OPTIMIZATION CYCLE   2            *
         *************************************************************
---------------------------------
CARTESIAN COORDINATES (ANGSTROEM)
---------------------------------
  C     -0.248606   -0.783696    0.008610
  H     -0.118394   -1.868689    0.008932
  C      0.885323    0.106353    0.014121
  N     -1.446842   -0.300717   -0.004819
  N     -2.493167    0.133112   -0.016539
  C      2.268128   -0.513940    0.001848
  O      0.746186    1.330581    0.007358
  H      2.593120   -0.659067   -1.040816
  H      2.968780    0.164890    0.504397
  H      2.266173   -1.489627    0.511509

----------------------------
CARTESIAN COORDINATES (A.U.)
----------------------------
  NO LB      ZA    FRAG     MASS         X           Y           Z
   0 C     6.0000    0    12.011   -0.469798   -1.480971    0.016270
   1 H     1.0000    0     1.008   -0.223733   -3.531310    0.016878
   2 C     6.0000    0    12.011    1.673017    0.200978    0.026685
   3 N     7.0000    0    14.007   -2.734136   -0.568273   -0.009107
   4 N     7.0000    0    14.007   -4.711403    0.251545   -0.031255
   5 C     6.0000    0    12.011    4.286141   -0.971206    0.003493
   6 O     8.0000    0    15.999    1.410088    2.514435    0.013905
   7 H     1.0000    0     1.008    4.900288   -1.245457   -1.966857
   8 H     1.0000    0     1.008    5.610181    0.311597    0.953172
   9 H     1.0000    0     1.008    4.282446   -2.814987    0.966611

--------------------------------
INTERNAL COORDINATES (ANGSTROEM)
--------------------------------
 C      0   0   0     0.000000000000     0.00000000     0.00000000
 H      1   0   0     1.092778330453     0.00000000     0.00000000
 C      1   2   0     1.441531264600   121.28547554     0.00000000
 N      1   2   3     1.291982301340   118.79506330   179.59629686
 N      4   1   2     1.132758044225   179.43319295   180.03855898
 C      3   1   2     1.515607022092   117.70769381     0.79197144
 O      3   1   2     1.232128280637   121.64307651   179.64845873
 H      6   3   1     1.101739514700   109.31181272    89.54188832
 H      6   3   1     1.097396419642   109.00480588   208.66249614
 H      6   3   1     1.100782731633   110.93998758   329.58466981

---------------------------
INTERNAL COORDINATES (A.U.)
---------------------------
 C      0   0   0     0.000000000000     0.00000000     0.00000000
 H      1   0   0     2.065051769640     0.00000000     0.00000000
 C      1   2   0     2.724099303579   121.28547554     0.00000000
 N      1   2   3     2.441492719406   118.79506330   179.59629686
 N      4   1   2     2.140602479582   179.43319295   180.03855898
 C      3   1   2     2.864082198401   117.70769381     0.79197144
 O      3   1   2     2.328385012263   121.64307651   179.64845873
 H      6   3   1     2.081985953702   109.31181272    89.54188832
 H      6   3   1     2.073778693469   109.00480588   208.66249614
 H      6   3   1     2.080177895736   110.93998758   329.58466981

------------------------------------------------------------------------------
                   ___                                                        
                  /   \      - P O W E R E D   B Y -                         
                 /     \                                                     
                 |  |  |   _    _      __       _____    __    __             
                 |  |  |  | |  | |    /  \     |  _  \  |  |  /  |          
                  \  \/   | |  | |   /    \    | | | |  |  | /  /          
                 / \  \   | |__| |  /  /\  \   | |_| |  |  |/  /          
                |  |  |   |  __  | /  /__\  \  |    /   |      \           
                |  |  |   | |  | | |   __   |  |    \   |  |\   \          
                \     /   | |  | | |  |  |  |  | |\  \  |  | \   \       
                 \___/    |_|  |_| |__|  |__|  |_| \__\ |__|  \__/        
                                                                              
                      - O R C A' S   B I G   F R I E N D -                    
                                      &                                       
                       - I N T E G R A L  F E E D E R -                       
                                                                              
 v1 FN, 2020, v2 2021                                                         
------------------------------------------------------------------------------


Reading SHARK input file ketone_c01.SHARKINP.tmp ... ok
----------------------
SHARK INTEGRAL PACKAGE
----------------------

Number of atoms                             ...     10
Number of basis functions                   ...    104
Number of shells                            ...     48
Maximum angular momentum                    ...      2
Integral batch strategy                     ... SHARK/LIBINT Hybrid
RI-J (if used) integral strategy            ... SPLIT-RIJ (Revised 2003 algorithm where possible)
Printlevel                                  ...      1
Contraction scheme used                     ... SEGMENTED contraction
Coulomb Range Separation                    ... NOT USED
Exchange Range Separation                   ... NOT USED
Finite Nucleus Model                        ... NOT USED
Auxiliary Coulomb fitting basis             ... AVAILABLE
   # of basis functions in Aux-J            ...    338
   # of shells in Aux-J                     ...    110
   Maximum angular momentum in Aux-J        ...      4
Auxiliary J/K fitting basis                 ... NOT available
Auxiliary Correlation fitting basis         ... NOT available
Auxiliary 'external' fitting basis          ... NOT available
Integral threshold                          ...     2.500000e-11
Primitive cut-off                           ...     2.500000e-12
Primitive pair pre-selection threshold      ...     2.500000e-12

Calculating pre-screening integrals         ... done (  0.0 sec) Dimension = 48
Organizing shell pair data                  ... done (  0.0 sec)
Shell pair information
Total number of shell pairs                 ...      1176
Shell pairs after pre-screening             ...      1123
Total number of primitive shell pairs       ...      4368
Primitive shell pairs kept                  ...      3202
          la=0 lb=0:    332 shell pairs
          la=1 lb=0:    399 shell pairs
          la=1 lb=1:    133 shell pairs
          la=2 lb=0:    147 shell pairs
          la=2 lb=1:     92 shell pairs
          la=2 lb=2:     20 shell pairs

Calculating one electron integrals          ... done (  0.0 sec)
Calculating RI/J V-Matrix + Cholesky decomp.... done (  0.0 sec)
Calculating Nuclear repulsion               ... done (  0.0 sec) ENN=    207.288456330874 Eh

SHARK setup successfully completed in   0.1 seconds

Maximum memory used throughout the entire GTOINT-calculation: 11.8 MB

Diagonalization of the overlap matrix:
Smallest eigenvalue                        ... 2.584e-03
Time for diagonalization                   ...    0.002 sec
Threshold for overlap eigenvalues          ... 1.000e-08
Number of eigenvalues below threshold      ... 0
Time for construction of square roots      ...    0.001 sec
Total time needed                          ...    0.003 sec

-------------------
DFT GRID GENERATION
-------------------

General Integration Accuracy     IntAcc      ... 4.388
Radial Grid Type                 RadialGrid  ... OptM3 with GC (2021)
Angular Grid (max. ang.)         AngularGrid ... 4 (Lebedev-302)
Angular grid pruning method      GridPruning ... 4 (adaptive)
Weight generation scheme         WeightScheme... Becke
Basis function cutoff            BFCut       ... 1.0000e-11
Integration weight cutoff        WCut        ... 1.0000e-14
Angular grids for H and He will be reduced by one unit
Partially contracted basis set               ... off
Rotationally invariant grid construction     ... off

Total number of grid points                  ...    49438
Total number of batches                      ...      778
Average number of points per batch           ...       63
Average number of grid points per atom       ...     4944
Time for grid setup =    0.307 sec

--------------------
COSX GRID GENERATION
--------------------

GRIDX 1
-------
General Integration Accuracy     IntAcc      ... 3.816
Radial Grid Type                 RadialGrid  ... OptM3 with GC (2021)
Angular Grid (max. ang.)         AngularGrid ... 1 (Lebedev-50)
Angular grid pruning method      GridPruning ... 4 (adaptive)
Weight generation scheme         WeightScheme... Becke
Basis function cutoff            BFCut       ... 1.0000e-11
Integration weight cutoff        WCut        ... 1.0000e-14
Angular grids for H and He will be reduced by one unit
Partially contracted basis set               ... on
Rotationally invariant grid construction     ... off

Total number of grid points                  ...     6322
Total number of batches                      ...      104
Average number of points per batch           ...       60
Average number of grid points per atom       ...      632
UseSFitting                                  ... on

GRIDX 2
-------
General Integration Accuracy     IntAcc      ... 4.020
Radial Grid Type                 RadialGrid  ... OptM3 with GC (2021)
Angular Grid (max. ang.)         AngularGrid ... 2 (Lebedev-110)
Angular grid pruning method      GridPruning ... 4 (adaptive)
Weight generation scheme         WeightScheme... Becke
Basis function cutoff            BFCut       ... 1.0000e-11
Integration weight cutoff        WCut        ... 1.0000e-14
Angular grids for H and He will be reduced by one unit
Partially contracted basis set               ... on
Rotationally invariant grid construction     ... off

Total number of grid points                  ...    14168
Total number of batches                      ...      226
Average number of points per batch           ...       62
Average number of grid points per atom       ...     1417
UseSFitting                                  ... on

GRIDX 3
-------
General Integration Accuracy     IntAcc      ... 4.338
Radial Grid Type                 RadialGrid  ... OptM3 with GC (2021)
Angular Grid (max. ang.)         AngularGrid ... 3 (Lebedev-194)
Angular grid pruning method      GridPruning ... 4 (adaptive)
Weight generation scheme         WeightScheme... Becke
Basis function cutoff            BFCut       ... 1.0000e-11
Integration weight cutoff        WCut        ... 1.0000e-14
Angular grids for H and He will be reduced by one unit
Partially contracted basis set               ... on
Rotationally invariant grid construction     ... off

Total number of grid points                  ...    31292
Total number of batches                      ...      495
Average number of points per batch           ...       63
Average number of grid points per atom       ...     3129
UseSFitting                                  ... on

Time for X-Grid setup             =    0.344 sec


--------------------
CPCM SOLVATION MODEL
--------------------
CPCM parameters:
  Epsilon                                         ...       9.0800
  Refrac                                          ...       1.4240
  Rsolv                                           ...       1.3000
  Surface type                                    ... GAUSSIAN VDW
  Epsilon function type                           ...         CPCM
Radii:
 Radius for C  used is    3.8550 Bohr (=   2.0400 Ang.)
 Radius for H  used is    2.4944 Bohr (=   1.3200 Ang.)
 Radius for N  used is    3.5149 Bohr (=   1.8600 Ang.)
 Radius for O  used is    3.4469 Bohr (=   1.8240 Ang.)
Calculating surface                               ...        done! (  0.0s)
GEPOL surface points                              ...          655
GEPOL Volume                                      ...     728.2880
GEPOL Surface-area                                ...     457.6835
Calculating surface distance matrix               ...        done! (  0.0s)
Performing Cholesky decomposition & store         ...        done! (  0.0s)
Overall time for CPCM initialization              ...                 0.0s
--------------
SCF ITERATIONS
--------------
ITER       Energy         Delta-E        Max-DP      RMS-DP      [F,P]     Damp
               ***  Starting incremental Fock matrix formation  ***
  0   -301.0158210248   0.000000000000 0.00722686  0.00037444  0.0195034 0.7000
                      *** Initiating the SOSCF procedure ***
                      *** Re-Reading the Fockian *** 
                      *** Removing any level shift *** 
ITER      Energy       Delta-E        Grad      Rot      Max-DP    RMS-DP
  1   -301.01655668  -0.0007356518  0.001295  0.001295  0.018078  0.001009
               *** Restarting incremental Fock matrix formation ***
  2   -301.01804929  -0.0014926179  0.003411  0.010991  0.017635  0.000521
  3   -301.01753455   0.0005147430  0.006836  0.006368  0.011099  0.000348
  4   -301.01821570  -0.0006811470  0.001049  0.002221  0.005011  0.000137
  5   -301.01820520   0.0000105001  0.001037  0.001297  0.002195  0.000081
  6   -301.01822805  -0.0000228512  0.000356  0.000563  0.001195  0.000051
  7   -301.01822719   0.0000008578  0.000373  0.000292  0.000790  0.000029
  8   -301.01822963  -0.0000024411  0.000041  0.000172  0.000211  0.000006
  9   -301.01822960   0.0000000327  0.000057  0.000114  0.000130  0.000004
 10   -301.01822967  -0.0000000672  0.000004  0.000016  0.000024  0.000001
 11   -301.01822967   0.0000000002  0.000005  0.000008  0.000013  0.000001
                 **** Energy Check signals convergence ****
              ***Rediagonalizing the Fockian in SOSCF/NRSCF***

               *****************************************************
               *                     SUCCESS                       *
               *           SCF CONVERGED AFTER  12 CYCLES          *
               *****************************************************

Old exchange energy                            =     -7.646395930 Eh
New exchange energy                            =     -7.646406619 Eh
Exchange energy change after final integration =     -0.000010689 Eh
Total energy after final integration           =   -301.018240356 Eh
Final COS-X integration done in                =     2.208 sec
Total Energy       :         -301.01824036 Eh           -8191.12275 eV
  Last Energy change         ...   -5.0392e-10  Tolerance :   1.0000e-08
  Last MAX-Density change    ...    2.6645e-15  Tolerance :   1.0000e-07
             **** THE GBW FILE WAS UPDATED (ketone_c01.gbw) ****
             **** DENSITY ketone_c01.scfp WAS UPDATED ****
             **** ENERGY FILE WAS UPDATED (ketone_c01.en.tmp) ****
             **** THE GBW FILE WAS UPDATED (ketone_c01.gbw) ****
             **** DENSITY ketone_c01.scfp WAS UPDATED ****
Total SCF time: 0 days 0 hours 0 min 20 sec 

Maximum memory used throughout the entire SCF-calculation: 55.6 MB


-------------------------------------------------------------------------------
                          DFT DISPERSION CORRECTION                            
                                                                               
                              DFTD3 V3.1  Rev 1                                
                          USING Becke-Johnson damping                          
-------------------------------------------------------------------------------
-------------------------   ----------------
Dispersion correction           -0.012563507
-------------------------   ----------------


-------------------------   --------------------
FINAL SINGLE POINT ENERGY      -301.030803863122
-------------------------   --------------------

------------------------------------------------------------------------------
                         ORCA SCF GRADIENT CALCULATION
------------------------------------------------------------------------------

 ... reading COSX grid (gridx3)
Gradient of the Kohn-Sham DFT energy:
Kohn-Sham wavefunction type      ... RKS
Hartree-Fock exchange scaling    ...    0.200
Number of operators              ...    1
Number of atoms                  ...   10
Basis set dimensions             ...  104
Integral neglect threshold       ... 2.5e-11
Integral primitive cutoff        ... 2.5e-12
SHARK Integral package           ... ON

Nuc. rep. gradient       (SHARK) ... done (  0.0 sec)
HCore & Overlap gradient (SHARK) ... done (  0.0 sec)
RI-J gradient            (SHARK) ... done (  0.3 sec)
COSX-gradient                    ... done (  2.8 sec)
Exchange-correlation gradient    ... done
Dispersion correction            ... done

------------------
CARTESIAN GRADIENT
------------------

   1   C   :   -0.017141918    0.019925110   -0.000367866
   2   H   :    0.005878476   -0.000161521   -0.000152045
   3   C   :   -0.007604803   -0.024654495    0.001318134
   4   N   :    0.019941712   -0.003905512    0.000794325
   5   N   :   -0.003698801   -0.000464354   -0.000228834
   6   C   :    0.005626166    0.005699796   -0.004068327
   7   O   :   -0.000317681    0.003569552   -0.000394366
   8   H   :   -0.000368187    0.000390323    0.000647075
[...]
     18       0.000000   0.000000   0.000000   0.000000   0.000000   0.000000
     19       0.000000   0.000000   0.000000   0.000000   0.000000   0.000000
     20       0.000000   0.000000   0.000000   0.000000   0.000000   0.000000
     21       0.000000   0.000000   0.000000   0.000000   0.000000   0.000000
     22       0.000000   0.000000   0.000000   0.000000   0.000000   0.000000
     23       0.000000   0.000000   0.000000   0.000000   0.000000   0.000000
     24       0.000000   0.000000   0.000000   0.000000   0.000000   0.000000
     25       0.000000   0.000000   0.000000   0.000000   0.000000   0.000000
     26       0.000000   0.000000   0.000000   0.000000   0.000000   0.000000
     27       0.000000   0.000000   0.000000   0.000000   0.000000   0.000000
     28       0.000000   0.000000   0.000000   0.000000   0.000000   0.000000
     29       0.000000   0.000000   0.000000   0.000000   0.000000   0.000000
                  6          7          8          9         10         11    
      0      -0.002662   0.006879  -0.022415  -0.093888   0.135505   0.002918
      1      -0.012704   0.040614   0.268353   0.001019   0.083196   0.016872
      2       0.073902  -0.273466   0.040641  -0.002037   0.016753  -0.107354
      3      -0.006193   0.008739  -0.002090  -0.345062  -0.192239  -0.024101
      4      -0.023331   0.057263   0.265328  -0.024597   0.052632  -0.134953
      5       0.143072  -0.383102   0.041863  -0.010508   0.012794   0.889154
      6      -0.001253   0.001617   0.094416   0.053677   0.055135   0.004388
      7      -0.004923   0.011481   0.127828  -0.160261  -0.008031   0.024779
      8       0.019484  -0.083701   0.022331  -0.024446  -0.000758  -0.155656
      9      -0.000742   0.000304  -0.093985  -0.050937   0.281596  -0.003770
     10      -0.002388   0.005671   0.090461   0.186412   0.392399  -0.016996
     11       0.015655  -0.034136   0.010914   0.028114   0.066543   0.098403
     12       0.001674  -0.006426  -0.341814  -0.158729   0.021024   0.001153
     13       0.007327  -0.036054  -0.429371  -0.033849  -0.195064   0.007510
     14      -0.034016   0.246246  -0.073685  -0.010625  -0.028486  -0.043955
     15       0.001350  -0.004496  -0.038373   0.212083  -0.022215   0.001357
     16       0.004455  -0.034416  -0.176628   0.134844  -0.167425  -0.000116
     17      -0.019254   0.231478  -0.026767   0.025031  -0.026177  -0.005825
     18       0.000443   0.002461   0.370608   0.023742  -0.364595  -0.002649
     19       0.003724   0.017654   0.163278  -0.164228  -0.050605  -0.010876
     20      -0.036118  -0.124135   0.032919  -0.022851  -0.017596   0.078779
     21       0.160588   0.289836  -0.166415   0.440863  -0.225915   0.216567
     22       0.536493   0.148352  -0.186042   0.184333  -0.227096  -0.091142
     23      -0.237776   0.195132  -0.043662   0.039628  -0.033428   0.073582
     24      -0.022336  -0.032492   0.143343  -0.082088   0.256581  -0.013068
     25      -0.093589  -0.097287  -0.358668   0.424995  -0.440614  -0.023038
     26       0.479451   0.603221  -0.026446   0.050143  -0.049360   0.147084
     27      -0.121483  -0.267732  -0.202060   0.474960  -0.263611  -0.204211
     28      -0.390369  -0.176989  -0.218868   0.192621  -0.224520   0.058649
     29      -0.439668   0.105243  -0.053387   0.057692  -0.058215   0.086536
                 12         13         14         15         16         17    
      0      -0.000133  -0.008581  -0.008143   0.079066   0.051863   0.002278
      1       0.000892  -0.038438   0.113667   0.259895   0.132189   0.008207
      2      -0.012668   0.291582   0.000085   0.040735   0.023798  -0.039415
      3      -0.026690   0.013995   0.119888   0.431445   0.093301  -0.000312
      4      -0.133823   0.042151   0.118873   0.306792   0.141025  -0.001536
      5       0.869693  -0.232570   0.038604   0.060484   0.020731   0.024721
      6      -0.003639   0.013823   0.156725  -0.035492   0.179832  -0.002307
      7      -0.018923   0.047238   0.091327  -0.064561  -0.060242  -0.031998
      8       0.115753  -0.275206   0.041735  -0.008642  -0.014309   0.198991
      9       0.007634  -0.003388  -0.178761  -0.007480  -0.043659  -0.000733
     10       0.038980   0.024799  -0.149839  -0.055347  -0.053359  -0.000661
     11      -0.249521  -0.218854  -0.019488  -0.008831  -0.008895  -0.001199
     12      -0.003123  -0.006354  -0.089993   0.032489  -0.027843  -0.000423
     13      -0.021689  -0.009717   0.101209   0.005828   0.029350   0.000099
     14       0.138623   0.098614   0.009586   0.001843   0.003485   0.002018
     15      -0.002220   0.017663   0.335050  -0.068784  -0.085599   0.001262
     16       0.002859  -0.002706  -0.155908  -0.099796   0.190550   0.031782
     17      -0.001808  -0.039107  -0.014151  -0.018442   0.033986  -0.163186
     18       0.002515  -0.012195  -0.194208  -0.037915   0.000810   0.002056
     19       0.001256  -0.011247   0.049106  -0.076020  -0.175044   0.001604
     20      -0.015104   0.096080  -0.005203  -0.012685  -0.024943  -0.040812
     21      -0.215724   0.510985   0.143634   0.303204  -0.578318   0.523906
     22       0.070942  -0.236986  -0.193684   0.073906   0.014884  -0.336470
     23      -0.068520   0.153230  -0.031020  -0.033288   0.036168   0.101994
     24       0.011752  -0.007445   0.603300  -0.519826   0.312722  -0.030290
     25       0.025371  -0.060511  -0.403699   0.340937  -0.209752  -0.063877
     26      -0.151654   0.302632  -0.065073   0.033333  -0.025268   0.357888
     27       0.199459  -0.461517   0.187413   0.339826  -0.587799  -0.524564
     28      -0.041910   0.151679  -0.210040   0.034670   0.037952   0.289015
     29      -0.075555   0.193423  -0.052032   0.075255  -0.078602   0.194789
                 18         19         20         21         22         23    
      0      -0.114886   0.157788   0.099031  -0.306722  -0.052396   0.008690
      1       0.106498  -0.148908   0.003554  -0.028789  -0.007829   0.001356
      2       0.012987  -0.018425   0.003065  -0.013356  -0.002503  -0.002638
      3      -0.963116  -0.246949  -0.257883   0.667414   0.123256  -0.013895
      4       0.034693  -0.207227  -0.029132   0.054255   0.006078  -0.001984
      5      -0.022967  -0.037599  -0.011875   0.028153   0.003650   0.005891
      6       0.063037   0.328547   0.001234   0.189947   0.045754  -0.008204
      7       0.016153   0.057137  -0.014093   0.068526   0.000776  -0.006473
      8       0.004515   0.018381  -0.001020   0.018179   0.001340   0.020491
      9       0.033781  -0.065749  -0.024347   0.064442   0.010812  -0.001634
     10      -0.077553   0.010720  -0.010098   0.017154   0.003013  -0.000059
     11      -0.010747  -0.000539  -0.002316   0.004319   0.000928  -0.001300
     12       0.108206  -0.119875  -0.022868   0.054339   0.007601  -0.001534
     13      -0.038950   0.054268   0.014488  -0.034140  -0.005051   0.000821
     14      -0.002992   0.005054   0.001607  -0.003604  -0.000620   0.000698
     15      -0.009851  -0.136659  -0.127768  -0.124245   0.031789   0.009810
     16      -0.015305  -0.095182   0.068237   0.006342   0.033991  -0.009605
     17      -0.002607  -0.019082   0.010461   0.004254   0.004056   0.051981
     18      -0.011843  -0.049864   0.000753  -0.019782  -0.010498   0.000510
     19       0.010657   0.049104   0.003132  -0.023625   0.020237   0.002191
     20       0.001272   0.006133   0.000377  -0.004294   0.002512  -0.001154
     21       0.009571   0.040161   0.471539   0.409160  -0.145886   0.402793
     22       0.036337   0.226460  -0.276376   0.151869  -0.566306   0.169668
     23      -0.020718  -0.123360   0.251434   0.023435   0.239818   0.021889
     24      -0.105117  -0.634381   0.285032   0.157310  -0.316294  -0.005984
     25       0.078746   0.386486  -0.319045  -0.232096   0.338847   0.187309
     26       0.005681   0.032926  -0.076369  -0.140704   0.116603  -0.691660
     27       0.008815   0.045385   0.473167   0.301448  -0.049950  -0.469670
     28       0.020862   0.139501  -0.173671   0.087912  -0.392483  -0.224939
     29       0.031233   0.195856  -0.308342   0.039178  -0.438679  -0.141564
                 24         25         26         27         28         29    
      0       0.053784   0.088319  -0.000274  -0.000032   0.000079  -0.007894
      1      -0.054005  -0.063684   0.000374  -0.000150  -0.000711   0.085726
      2      -0.006718  -0.007264   0.000056   0.000103  -0.000091   0.012837
      3      -0.245848   0.179537  -0.000007  -0.000025  -0.001673   0.096368
      4      -0.088786  -0.031083  -0.005471   0.001644   0.005625  -0.980561
      5      -0.019710   0.000992  -0.000836  -0.000677   0.000778  -0.146803
      6      -0.143459   0.048245  -0.001839   0.000251  -0.000368  -0.002219
      7       0.715725   0.061770   0.000352  -0.000048   0.001868  -0.001390
      8       0.105473   0.010621  -0.000025  -0.000434   0.000315  -0.000269
      9       0.038595  -0.683646   0.000597   0.000061  -0.000528  -0.000865
     10       0.001579   0.305868  -0.000051  -0.000052   0.000188  -0.000322
     11       0.001126   0.028624  -0.000002   0.000088   0.000023  -0.000066
     12      -0.048119   0.562211  -0.000337  -0.000046   0.000355   0.002573
     13       0.016477  -0.259998   0.000084   0.000029  -0.000150  -0.000525
     14       0.001268  -0.025158   0.000008  -0.000030  -0.000017  -0.000012
     15       0.030347  -0.006185   0.038610   0.000735   0.046462   0.000179
     16      -0.052527  -0.000168  -0.032883   0.016555   0.080864   0.000767
     17      -0.007020   0.000035  -0.007829  -0.090943   0.014650   0.000004
     18       0.065761  -0.000550   0.000005   0.000001  -0.000035  -0.000116
     19      -0.461526  -0.037028   0.000296   0.000072  -0.000764  -0.000833
     20      -0.068415  -0.005615   0.000039  -0.000250  -0.000142  -0.000127
     21       0.101807  -0.013065  -0.088575  -0.101242   0.045292   0.000665
     22      -0.154131  -0.006502   0.258591   0.292869  -0.105935  -0.001471
     23       0.054034   0.013634   0.589250   0.624469  -0.257641  -0.004045
     24      -0.187334  -0.013912  -0.308454   0.034803  -0.620513  -0.001076
     25       0.187136   0.014535  -0.318298   0.036959  -0.623066  -0.002398
     26       0.029784   0.000984  -0.078275  -0.004126  -0.152984  -0.000490
     27       0.126887  -0.009953  -0.041539   0.054876   0.029679   0.000530
     28      -0.128703  -0.001830   0.443204  -0.527204  -0.242352  -0.004648
     29      -0.104582  -0.015070  -0.417925   0.471082   0.234793   0.004623


-----------
IR SPECTRUM
-----------

 Mode   freq       eps      Int      T**2         TX        TY        TZ
       cm**-1   L/(mol*cm) km/mol    a.u.
----------------------------------------------------------------------------
  6:     37.36   0.000005    0.03  0.000045  (-0.002542  0.005128 -0.003533)
  7:    125.13   0.000006    0.03  0.000015  ( 0.000120  0.000068  0.003820)
  8:    142.01   0.000650    3.28  0.001428  (-0.035467  0.013013  0.000897)
  9:    356.25   0.000735    3.71  0.000644  (-0.012242  0.021971  0.003359)
 10:    457.12   0.000644    3.26  0.000440  ( 0.019377 -0.008019 -0.000464)
 11:    517.01   0.007470   37.75  0.004509  (-0.001986 -0.010292  0.066324)
 12:    567.63   0.002597   13.12  0.001428  (-0.001386 -0.006182  0.037247)
 13:    621.30   0.005059   25.57  0.002541  ( 0.003385  0.008742 -0.049532)
 14:    646.60   0.006978   35.26  0.003368  ( 0.055225  0.016385  0.007021)
 15:    917.49   0.003580   18.09  0.001218  (-0.034867 -0.001201 -0.000655)
 16:    970.15   0.013387   67.65  0.004306  ( 0.063860  0.014914  0.002392)
 17:   1020.93   0.002489   12.58  0.000761  (-0.001768 -0.002706  0.027393)
 18:   1179.71   0.009164   46.31  0.002424  ( 0.048727  0.006734  0.002115)
 19:   1190.03   0.013303   67.23  0.003488  ( 0.058430  0.008247  0.002543)
 20:   1349.55   0.005870   29.66  0.001357  (-0.024962 -0.026462 -0.005820)
 21:   1399.64   0.124148  627.39  0.027680  ( 0.165271  0.018340  0.005400)
 22:   1419.69   0.011853   59.90  0.002605  ( 0.041737 -0.029261 -0.002690)
 23:   1428.71   0.002720   13.75  0.000594  (-0.008450  0.001369 -0.022822)
 24:   1738.32   0.068708  347.22  0.012335  ( 0.043765  0.100663  0.016916)
 25:   2261.56   0.170993  864.13  0.023595  (-0.150915  0.028621  0.000110)
 26:   3034.25   0.000101    0.51  0.000010  ( 0.002137 -0.002386 -0.000311)
 27:   3112.40   0.000705    3.56  0.000071  (-0.000823  0.002197 -0.008072)
 28:   3158.62   0.001742    8.81  0.000172  ( 0.010265  0.008029  0.001518)
 29:   3229.54   0.004729   23.90  0.000457  ( 0.005994 -0.020300 -0.002981)

* The epsilon (eps) is given for a Dirac delta lineshape.
** The dipole moment derivative (T) already includes vibrational overlap.

The first frequency considered to be a vibration is 6
The total number of vibrations considered is 24


--------------------------
THERMOCHEMISTRY AT 298.15K
--------------------------

Temperature         ... 298.15 K
Pressure            ... 1.00 atm
Total Mass          ... 84.08 AMU

Throughout the following assumptions are being made:
  (1) The electronic state is orbitally nondegenerate
  (2) There are no thermally accessible electronically excited states
  (3) Hindered rotations indicated by low frequency modes are not
      treated as such but are treated as vibrations and this may
      cause some error
  (4) All equations used are the standard statistical mechanics
      equations for an ideal gas
  (5) All vibrations are strictly harmonic

freq.      37.36  E(vib)   ...       0.54 
freq.     125.13  E(vib)   ...       0.43 
freq.     142.01  E(vib)   ...       0.41 
freq.     356.25  E(vib)   ...       0.22 
freq.     457.12  E(vib)   ...       0.16 
freq.     517.01  E(vib)   ...       0.13 
freq.     567.63  E(vib)   ...       0.11 
freq.     621.30  E(vib)   ...       0.09 
freq.     646.60  E(vib)   ...       0.09 
freq.     917.49  E(vib)   ...       0.03 
freq.     970.15  E(vib)   ...       0.03 
freq.    1020.93  E(vib)   ...       0.02 
freq.    1179.71  E(vib)   ...       0.01 
freq.    1190.03  E(vib)   ...       0.01 
freq.    1349.55  E(vib)   ...       0.01 
freq.    1399.64  E(vib)   ...       0.00 
freq.    1419.69  E(vib)   ...       0.00 
freq.    1428.71  E(vib)   ...       0.00 
freq.    1738.32  E(vib)   ...       0.00 
freq.    2261.56  E(vib)   ...       0.00 
freq.    3034.25  E(vib)   ...       0.00 
freq.    3112.40  E(vib)   ...       0.00 
freq.    3158.62  E(vib)   ...       0.00 
freq.    3229.54  E(vib)   ...       0.00 

------------
INNER ENERGY
------------

The inner energy is: U= E(el) + E(ZPE) + E(vib) + E(rot) + E(trans)
    E(el)   - is the total energy from the electronic structure calculation
              = E(kin-el) + E(nuc-el) + E(el-el) + E(nuc-nuc)
    E(ZPE)  - the the zero temperature vibrational energy from the frequency calculation
    E(vib)  - the the finite temperature correction to E(ZPE) due to population
              of excited vibrational states
    E(rot)  - is the rotational thermal energy
    E(trans)- is the translational thermal energy

Summary of contributions to the inner energy U:
Electronic energy                ...   -301.03242074 Eh
Zero point energy                ...      0.07035204 Eh      44.15 kcal/mol
Thermal vibrational correction   ...      0.00368771 Eh       2.31 kcal/mol
Thermal rotational correction    ...      0.00141627 Eh       0.89 kcal/mol
Thermal translational correction ...      0.00141627 Eh       0.89 kcal/mol
-----------------------------------------------------------------------
Total thermal energy                   -300.95554845 Eh


Summary of corrections to the electronic energy:
(perhaps to be used in another calculation)
Total thermal correction                  0.00652025 Eh       4.09 kcal/mol
Non-thermal (ZPE) correction              0.07035204 Eh      44.15 kcal/mol
-----------------------------------------------------------------------
Total correction                          0.07687229 Eh      48.24 kcal/mol


--------
ENTHALPY
--------

The enthalpy is H = U + kB*T
                kB is Boltzmann's constant
Total free energy                 ...   -300.95554845 Eh 
Thermal Enthalpy correction       ...      0.00094421 Eh       0.59 kcal/mol
-----------------------------------------------------------------------
Total Enthalpy                    ...   -300.95460424 Eh


Note: Only C1 symmetry has been detected, increase convergence thresholds 
      if your molecule has a higher symmetry. Symmetry factor of 1.0 is   
      used for the rotational entropy correction. 
 

Note: Rotational entropy computed according to Herzberg 
Infrared and Raman Spectra, Chapter V,1, Van Nostrand Reinhold, 1945 
Point Group:  C1, Symmetry Number:   1  
Rotational constants in cm-1:     0.336960     0.077810     0.063974 

Vibrational entropy computed according to the QRRHO of S. Grimme
Chem.Eur.J. 2012 18 9955


-------
ENTROPY
-------

The entropy contributions are T*S = T*(S(el)+S(vib)+S(rot)+S(trans))
     S(el)   - electronic entropy
     S(vib)  - vibrational entropy
     S(rot)  - rotational entropy
     S(trans)- translational entropy
The entropies will be listed as multiplied by the temperature to get
units of energy

Electronic entropy                ...      0.00000000 Eh      0.00 kcal/mol
Vibrational entropy               ...      0.00656501 Eh      4.12 kcal/mol
Rotational entropy                ...      0.01252773 Eh      7.86 kcal/mol
Translational entropy             ...      0.01862562 Eh     11.69 kcal/mol
-----------------------------------------------------------------------
Final entropy term                ...      0.03771836 Eh     23.67 kcal/mol

In case the symmetry of your molecule has not been determined correctly
or in case you have a reason to use a different symmetry number we print 
out the resulting rotational entropy values for sn=1,12 :
 --------------------------------------------------------
|  sn= 1 | S(rot)=       0.01252773 Eh      7.86 kcal/mol|
|  sn= 2 | S(rot)=       0.01187327 Eh      7.45 kcal/mol|
|  sn= 3 | S(rot)=       0.01149044 Eh      7.21 kcal/mol|
|  sn= 4 | S(rot)=       0.01121882 Eh      7.04 kcal/mol|
|  sn= 5 | S(rot)=       0.01100813 Eh      6.91 kcal/mol|
|  sn= 6 | S(rot)=       0.01083598 Eh      6.80 kcal/mol|
|  sn= 7 | S(rot)=       0.01069044 Eh      6.71 kcal/mol|
|  sn= 8 | S(rot)=       0.01056436 Eh      6.63 kcal/mol|
|  sn= 9 | S(rot)=       0.01045315 Eh      6.56 kcal/mol|
|  sn=10 | S(rot)=       0.01035367 Eh      6.50 kcal/mol|
|  sn=11 | S(rot)=       0.01026368 Eh      6.44 kcal/mol|
|  sn=12 | S(rot)=       0.01018153 Eh      6.39 kcal/mol|
 --------------------------------------------------------


-------------------
GIBBS FREE ENERGY
-------------------

The Gibbs free energy is G = H - T*S

Total enthalpy                    ...   -300.95460424 Eh 
Total entropy correction          ...     -0.03771836 Eh    -23.67 kcal/mol
-----------------------------------------------------------------------
Final Gibbs free energy         ...   -300.99232260 Eh

For completeness - the Gibbs free energy minus the electronic energy
G-E(el)                           ...      0.04009814 Eh     25.16 kcal/mol


Timings for individual modules:

Sum of individual times         ...      526.443 sec (=   8.774 min)
GTO integral calculation        ...        3.463 sec (=   0.058 min)   0.7 %
SCF iterations                  ...      326.093 sec (=   5.435 min)  61.9 %
SCF Gradient evaluation         ...       94.269 sec (=   1.571 min)  17.9 %
Geometry relaxation             ...        1.457 sec (=   0.024 min)   0.3 %
Analytical frequency calculation...      101.161 sec (=   1.686 min)  19.2 %
                             ****ORCA TERMINATED NORMALLY****
TOTAL RUN TIME: 0 days 0 hours 8 minutes 49 seconds 885 msec
