
                                 *****************
                                 * O   R   C   A *
                                 *****************

                                            #,                                       
                                            ###                                      
                                            ####                                     
                                            #####                                    
                                            ######                                   
                                           ########,                                 
                                     ,,################,,,,,                         
                               ,,#################################,,                 
                          ,,##########################################,,             
                       ,#########################################, ''#####,          
                    ,#############################################,,   '####,        
                  ,##################################################,,,,####,       
                ,###########''''           ''''###############################       
              ,#####''   ,,,,##########,,,,          '''####'''          '####       
            ,##' ,,,,###########################,,,                        '##       
           ' ,,###''''                  '''############,,,                           
         ,,##''                                '''############,,,,        ,,,,,,###''
      ,#''                                            '''#######################'''  
     '                                                          ''''####''''         
             ,#######,   #######,   ,#######,      ##                                
            ,#'     '#,  ##    ##  ,#'     '#,    #''#        ######   ,####,        
            ##       ##  ##   ,#'  ##            #'  '#       #        #'  '#        
            ##       ##  #######   ##           ,######,      #####,   #    #        
            '#,     ,#'  ##    ##  '#,     ,#' ,#      #,         ##   #,  ,#        
             '#######'   ##     ##  '#######'  #'      '#     #####' # '####'        



                  #######################################################
                  #                        -***-                        #
                  #          Department of theory and spectroscopy      #
                  #    Directorship and core code : Frank Neese         #
                  #        Max Planck Institute fuer Kohlenforschung    #
                  #                Kaiser Wilhelm Platz 1               #
                  #                 D-45470 Muelheim/Ruhr               #
                  #                      Germany                        #
                  #                                                     #
                  #                  All rights reserved                #
                  #                        -***-                        #
                  #######################################################


                         Program Version 5.0.3 -  RELEASE  -


 With contributions from (in alphabetic order):
   Daniel Aravena         : Magnetic Suceptibility
   Michael Atanasov       : Ab Initio Ligand Field Theory (pilot matlab implementation)
   Alexander A. Auer      : GIAO ZORA, VPT2 properties, NMR spectrum
   Ute Becker             : Parallelization
   Giovanni Bistoni       : ED, misc. LED, open-shell LED, HFLD
   Martin Brehm           : Molecular dynamics
   Dmytro Bykov           : SCF Hessian
   Vijay G. Chilkuri      : MRCI spin determinant printing, contributions to CSF-ICE
   Dipayan Datta          : RHF DLPNO-CCSD density
   Achintya Kumar Dutta   : EOM-CC, STEOM-CC
   Dmitry Ganyushin       : Spin-Orbit,Spin-Spin,Magnetic field MRCI
   Miquel Garcia          : C-PCM and meta-GGA Hessian, CC/C-PCM, Gaussian charge scheme
   Yang Guo               : DLPNO-NEVPT2, F12-NEVPT2, CIM, IAO-localization
   Andreas Hansen         : Spin unrestricted coupled pair/coupled cluster methods
   Benjamin Helmich-Paris : MC-RPA, TRAH-SCF, COSX integrals
   Lee Huntington         : MR-EOM, pCC
   Robert Izsak           : Overlap fitted RIJCOSX, COSX-SCS-MP3, EOM
   Marcus Kettner         : VPT2
   Christian Kollmar      : KDIIS, OOCD, Brueckner-CCSD(T), CCSD density, CASPT2, CASPT2-K
   Simone Kossmann        : Meta GGA functionals, TD-DFT gradient, OOMP2, MP2 Hessian
   Martin Krupicka        : Initial AUTO-CI
   Lucas Lang             : DCDCAS
   Marvin Lechner         : AUTO-CI (C++ implementation), FIC-MRCC
   Dagmar Lenk            : GEPOL surface, SMD
   Dimitrios Liakos       : Extrapolation schemes; Compound Job, initial MDCI parallelization
   Dimitrios Manganas     : Further ROCIS development; embedding schemes
   Dimitrios Pantazis     : SARC Basis sets
   Anastasios Papadopoulos: AUTO-CI, single reference methods and gradients
   Taras Petrenko         : DFT Hessian,TD-DFT gradient, ASA, ECA, R-Raman, ABS, FL, XAS/XES, NRVS
   Peter Pinski           : DLPNO-MP2, DLPNO-MP2 Gradient
   Christoph Reimann      : Effective Core Potentials
   Marius Retegan         : Local ZFS, SOC
   Christoph Riplinger    : Optimizer, TS searches, QM/MM, DLPNO-CCSD(T), (RO)-DLPNO pert. Triples
   Tobias Risthaus        : Range-separated hybrids, TD-DFT gradient, RPA, STAB
   Michael Roemelt        : Original ROCIS implementation
   Masaaki Saitow         : Open-shell DLPNO-CCSD energy and density
   Barbara Sandhoefer     : DKH picture change effects
   Avijit Sen             : IP-ROCIS
   Kantharuban Sivalingam : CASSCF convergence, NEVPT2, FIC-MRCI
   Bernardo de Souza      : ESD, SOC TD-DFT
   Georgi Stoychev        : AutoAux, RI-MP2 NMR, DLPNO-MP2 response
   Willem Van den Heuvel  : Paramagnetic NMR
   Boris Wezisla          : Elementary symmetry handling
   Frank Wennmohs         : Technical directorship


 We gratefully acknowledge several colleagues who have allowed us to
 interface, adapt or use parts of their codes:
   Stefan Grimme, W. Hujo, H. Kruse, P. Pracht,  : VdW corrections, initial TS optimization,
                  C. Bannwarth, S. Ehlert          DFT functionals, gCP, sTDA/sTD-DF
   Ed Valeev, F. Pavosevic, A. Kumar             : LibInt (2-el integral package), F12 methods
   Garnet Chan, S. Sharma, J. Yang, R. Olivares  : DMRG
   Ulf Ekstrom                                   : XCFun DFT Library
   Mihaly Kallay                                 : mrcc  (arbitrary order and MRCC methods)
   Jiri Pittner, Ondrej Demel                    : Mk-CCSD
   Frank Weinhold                                : gennbo (NPA and NBO analysis)
   Christopher J. Cramer and Donald G. Truhlar   : smd solvation model
   Lars Goerigk                                  : TD-DFT with DH, B97 family of functionals
   V. Asgeirsson, H. Jonsson                     : NEB implementation
   FAccTs GmbH                                   : IRC, NEB, NEB-TS, DLPNO-Multilevel, CI-OPT
                                                   MM, QMMM, 2- and 3-layer-ONIOM, Crystal-QMMM,
                                                   LR-CPCM, SF, NACMEs, symmetry and pop. for TD-DFT,
                                                   nearIR, NL-DFT gradient (VV10), updates on ESD,
                                                   ML-optimized integration grids
   S Lehtola, MJT Oliveira, MAL Marques          : LibXC Library
   Liviu Ungur et al                             : ANISO software


 Your calculation uses the libint2 library for the computation of 2-el integrals
 For citations please refer to: http://libint.valeyev.net

 Your ORCA version has been built with support for libXC version: 5.1.0
 For citations please refer to: https://tddft.org/programs/libxc/

 This ORCA versions uses:
   CBLAS   interface :  Fast vector & matrix operations
   LAPACKE interface :  Fast linear algebra routines
   SCALAPACK package :  Parallel linear algebra routines
   Shared memory     :  Shared parallel matrices


Your calculation utilizes the atom-pairwise dispersion correction
with the Becke-Johnson damping scheme (D3BJ)
Cite in your paper:
S.Grimme, S.Ehrlich, L.Goerigk, J Comput Chem, (2011), 32, 1456–1465 
S.Grimme, J.Antony, S.Ehrlich and H.Krieg, J.Chem.Phys., 132, (2010), 154104 
   

================================================================================

----- Orbital basis set information -----
Your calculation utilizes the basis: def2-TZVP
   F. Weigend and R. Ahlrichs, Phys. Chem. Chem. Phys. 7, 3297 (2005).

----- AuxJ basis set information -----
Your calculation utilizes the auxiliary basis: def2/J
   F. Weigend, Phys. Chem. Chem. Phys. 8, 1057 (2006).

================================================================================
                                        WARNINGS
                       Please study these warnings very carefully!
================================================================================


INFO   : the flag for use of the SHARK integral package has been found!

================================================================================
                                       INPUT FILE
================================================================================
NAME = diazo_c01_sp.inp
|  1> ! b3lyp d3bj def2-tzvp tightscf cpcm(CH2Cl2) printBasis
|  2> %MaxCore 1000
|  3> %pal nprocs 1 end
|  4> %scf print[p_mos] 1 end
|  5> 
|  6> *xyz 0 1
|  7> C     0.917852  -0.637477  -0.212483
|  8> C    -0.307682   0.128522  -0.016164
|  9> N     2.049677   0.016640  -0.238808
| 10> O    -1.373434  -0.692560  -0.012876
| 11> O    -0.375873   1.334518   0.125684
| 12> C    -2.649232  -0.071566   0.170809
| 13> N     3.020133   0.598093  -0.258681
| 14> H     0.960640  -1.719095  -0.339346
| 15> H    -3.389104  -0.880125   0.128967
| 16> H    -2.698332   0.437846   1.145350
| 17> H    -2.844281   0.663409  -0.624848
| 18> *
| 19> 
| 20> 
| 21> 
| 22> 
| 23> 
| 24>                          ****END OF INPUT****
================================================================================

                       ****************************
                       * Single Point Calculation *
                       ****************************

---------------------------------
CARTESIAN COORDINATES (ANGSTROEM)
---------------------------------
  C      0.917852   -0.637477   -0.212483
  C     -0.307682    0.128522   -0.016164
  N      2.049677    0.016640   -0.238808
  O     -1.373434   -0.692560   -0.012876
  O     -0.375873    1.334518    0.125684
  C     -2.649232   -0.071566    0.170809
  N      3.020133    0.598093   -0.258681
  H      0.960640   -1.719095   -0.339346
  H     -3.389104   -0.880125    0.128967
  H     -2.698332    0.437846    1.145350
  H     -2.844281    0.663409   -0.624848

----------------------------
CARTESIAN COORDINATES (A.U.)
----------------------------
  NO LB      ZA    FRAG     MASS         X           Y           Z
   0 C     6.0000    0    12.011    1.734489   -1.204657   -0.401535
   1 C     6.0000    0    12.011   -0.581435    0.242871   -0.030546
   2 N     7.0000    0    14.007    3.873328    0.031445   -0.451282
   3 O     8.0000    0    15.999   -2.595414   -1.308749   -0.024332
   4 O     8.0000    0    15.999   -0.710297    2.521874    0.237508
   5 C     6.0000    0    12.011   -5.006323   -0.135240    0.322782
   6 N     7.0000    0    14.007    5.707224    1.130232   -0.488836
   7 H     1.0000    0     1.008    1.815347   -3.248619   -0.641271
   8 H     1.0000    0     1.008   -6.404478   -1.663195    0.243712
   9 H     1.0000    0     1.008   -5.099108    0.827409    2.164398
  10 H     1.0000    0     1.008   -5.374912    1.253661   -1.180792

--------------------------------
INTERNAL COORDINATES (ANGSTROEM)
--------------------------------
 C      0   0   0     0.000000000000     0.00000000     0.00000000
 C      1   0   0     1.458502383583     0.00000000     0.00000000
 N      1   2   0     1.307512862629   117.86118383     0.00000000
 O      2   1   3     1.345367528660   110.20812640   180.08317193
 O      2   1   3     1.216222520594   125.70346651     0.08617130
 C      4   2   1     1.430746051564   116.21843850   180.03639180
 N      3   1   2     1.131489008022   179.08506742     1.11207871
 H      1   2   3     1.089872713502   124.74146828   179.99581802
 H      6   4   2     1.096781193233   106.06066212   179.06411774
 H      6   4   2     1.100745909111   110.75090979   298.59129856
 H      6   4   2     1.100591851994   110.79737505    59.48806073

---------------------------
INTERNAL COORDINATES (A.U.)
---------------------------
 C      0   0   0     0.000000000000     0.00000000     0.00000000
 C      1   0   0     2.756170070644     0.00000000     0.00000000
 N      1   2   0     2.470841226947   117.86118383     0.00000000
 O      2   1   3     2.542376178637   110.20812640   180.08317193
 O      2   1   3     2.298327481831   125.70346651     0.08617130
 C      4   2   1     2.703718204644   116.21843850   180.03639180
 N      3   1   2     2.138204348703   179.08506742     1.11207871
 H      1   2   3     2.059560949353   124.74146828   179.99581802
 H      6   4   2     2.072616084045   106.06066212   179.06411774
 H      6   4   2     2.080108311254   110.75090979   298.59129856
 H      6   4   2     2.079817185493   110.79737505    59.48806073

---------------------
BASIS SET INFORMATION
---------------------
There are 4 groups of distinct atoms

 Group   1 Type C   : 11s6p2d1f contracted to 5s3p2d1f pattern {62111/411/11/1}
 Group   2 Type N   : 11s6p2d1f contracted to 5s3p2d1f pattern {62111/411/11/1}
 Group   3 Type O   : 11s6p2d1f contracted to 5s3p2d1f pattern {62111/411/11/1}
 Group   4 Type H   : 5s1p contracted to 3s1p pattern {311/1}

Atom   0C    basis set group =>   1
Atom   1C    basis set group =>   1
Atom   2N    basis set group =>   2
Atom   3O    basis set group =>   3
Atom   4O    basis set group =>   3
Atom   5C    basis set group =>   1
Atom   6N    basis set group =>   2
Atom   7H    basis set group =>   4
Atom   8H    basis set group =>   4
Atom   9H    basis set group =>   4
Atom  10H    basis set group =>   4

-------------------------
BASIS SET IN INPUT FORMAT
-------------------------

 # Basis set for element : H 
 NewGTO H 
 S 3 
   1      34.0613410000      0.0254393072
   2       5.1235746000      0.1900859489
   3       1.1646626000      0.8524411301
 S 1 
   1       0.3272304100      1.0000000000
 S 1 
   1       0.1030724100      1.0000000000
 P 1 
   1       0.8000000000      1.0000000000
  end;

 # Basis set for element : C 
 NewGTO C 
 S 6 
   1   13575.3496820000      0.0006064549
   2    2035.2333680000      0.0046979088
   3     463.2256235900      0.0243324776
   4     131.2001959800      0.0973999683
   5      42.8530158910      0.3019558425
   6      15.5841857660      0.6623360915
 S 2 
   1       6.2067138508      0.6559530854
   2       2.5764896527      0.3758563329
 S 1 
   1       0.5769633942      1.0000000000
 S 1 
   1       0.2297283136      1.0000000000
 S 1 
   1       0.0951644400      1.0000000000
 P 4 
   1      34.6972322440      0.0113272200
   2       7.9582622826      0.0761696592
   3       2.3780826883      0.3019225220
   4       0.8143320818      0.7278502735
 P 1 
   1       0.2888754725      1.0000000000
 P 1 
   1       0.1005682367      1.0000000000
 D 1 
   1       1.0970000000      1.0000000000
 D 1 
   1       0.3180000000      1.0000000000
 F 1 
   1       0.7610000000      1.0000000000
  end;

 # Basis set for element : N 
 NewGTO N 
 S 6 
   1   19730.8006470000      0.0005862639
   2    2957.8958745000      0.0045428821
   3     673.2213359500      0.0235584136
   4     190.6824949400      0.0947091933
   5      62.2954418980      0.2971978492
   6      22.6541611820      0.6691624689
 S 2 
   1       8.9791477428      0.6459668363
   2       3.6863002370      0.3870057440
 S 1 
   1       0.8466007680      1.0000000000
 S 1 
   1       0.3364713377      1.0000000000
 S 1 
   1       0.1364765367      1.0000000000
 P 4 
   1      49.2003805100      0.0114488252
   2      11.3467905370      0.0784223379
   3       3.4273972411      0.3081809474
   4       1.1785525134      0.7202719637
 P 1 
   1       0.4164220497      1.0000000000
 P 1 
   1       0.1426082601      1.0000000000
 D 1 
   1       1.6540000000      1.0000000000
 D 1 
   1       0.4690000000      1.0000000000
 F 1 
   1       1.0930000000      1.0000000000
  end;

 # Basis set for element : O 
 NewGTO O 
 S 6 
   1   27032.3826310000      0.0005722733
   2    4052.3871392000      0.0044353233
   3     922.3272271000      0.0230201076
   4     261.2407098900      0.0928224906
   5      85.3546413510      0.2937850002
   6      31.0350352450      0.6740160450
 S 2 
   1      12.2608607280      0.6383993702
   2       4.9987076005      0.3953458713
 S 1 
   1       1.1703108158      1.0000000000
 S 1 
   1       0.4647474099      1.0000000000
 S 1 
   1       0.1850453636      1.0000000000
 P 4 
   1      63.2749548010      0.0120183321
   2      14.6270493790      0.0830054217
   3       4.4501223456      0.3199174393
   4       1.5275799647      0.7071554292
 P 1 
   1       0.5293511794      1.0000000000
 P 1 
   1       0.1747842127      1.0000000000
 D 1 
   1       2.3140000000      1.0000000000
 D 1 
   1       0.6450000000      1.0000000000
 F 1 
   1       1.4280000000      1.0000000000
  end;

---------------------------------
AUXILIARY/J BASIS SET INFORMATION
---------------------------------
There are 4 groups of distinct atoms

 Group   1 Type C   : 12s5p4d2f1g contracted to 6s4p3d1f1g pattern {711111/2111/211/2/1}
 Group   2 Type N   : 12s5p4d2f1g contracted to 6s4p3d1f1g pattern {711111/2111/211/2/1}
 Group   3 Type O   : 12s5p4d2f1g contracted to 6s4p3d1f1g pattern {711111/2111/211/2/1}
 Group   4 Type H   : 5s2p1d contracted to 3s1p1d pattern {311/2/1}

Atom   0C    basis set group =>   1
Atom   1C    basis set group =>   1
Atom   2N    basis set group =>   2
Atom   3O    basis set group =>   3
Atom   4O    basis set group =>   3
Atom   5C    basis set group =>   1
Atom   6N    basis set group =>   2
Atom   7H    basis set group =>   4
Atom   8H    basis set group =>   4
Atom   9H    basis set group =>   4
Atom  10H    basis set group =>   4

-------------------------------------
AUXILIARY/J BASIS SET IN INPUT FORMAT
-------------------------------------

 # Auxiliary/J basis set for element : H 
 NewAuxJGTO H 
 S 3 
   1      15.6752927000      0.1007184237
   2       3.6063578000      0.3404257499
   3       1.2080016000      0.6491996172
 S 1 
   1       0.4726794000      1.0000000000
 S 1 
   1       0.2018100000      1.0000000000
 P 2 
   1       2.0281365000      0.5596620919
   2       0.5358730000      0.5596620919
 D 1 
   1       2.2165124000      1.0000000000
  end;

 # Auxiliary/J basis set for element : C 
 NewAuxJGTO C 
 S 7 
   1    1861.0916331000      0.0134602335
   2     642.9939764000      0.0299160374
   3     235.1105725000      0.1008649584
   4      90.7028894000      0.2370970548
   5      36.7794552000      0.3924037254
   6      15.6046273000      0.3195862154
   7       6.8907294000      0.0530104441
 S 1 
   1       3.1478850000     -1.0000000000
 S 1 
   1       1.4777287000      1.0000000000
 S 1 
   1       0.7076466000      1.0000000000
 S 1 
   1       0.3430122000      1.0000000000
 S 1 
   1       0.1669453000      1.0000000000
 P 2 
   1      13.5472892000     -0.6769313712
   2       5.4669419000     -0.3779500978
 P 1 
   1       2.1751721000      1.0000000000
 P 1 
   1       0.8582194000      1.0000000000
 P 1 
   1       0.3376720000      1.0000000000
 D 2 
   1       5.9287253000     -0.3533329857
   2       1.9809209000     -0.7456525731
 D 1 
   1       0.8055417000     -1.0000000000
 D 1 
   1       0.3531244000     -1.0000000000
 F 2 
   1       1.6755626000      0.6311076882
   2       0.5997536000      0.4968166032
 G 1 
   1       1.0024600000     -1.0000000000
  end;

 # Auxiliary/J basis set for element : N 
 NewAuxJGTO N 
 S 7 
   1    2542.9401785000      0.0128431329
   2    1029.5472946000      0.0206655120
   3     424.9053546000      0.0652200677
   4     178.4573708000      0.1617388940
   5      76.1362742000      0.3094256941
   6      32.9338653000      0.3918849307
   7      14.4155436000      0.1822470660
 S 1 
   1       6.3718891000     -1.0000000000
 S 1 
   1       2.8381742000      1.0000000000
 S 1 
   1       1.2711793000      1.0000000000
 S 1 
   1       0.5712407000      1.0000000000
 S 1 
   1       0.2569887000      1.0000000000
 P 2 
   1      17.8975990000     -1.0974070137
   2       6.5346319000      0.1380055963
 P 1 
   1       2.3523645000      1.0000000000
 P 1 
   1       0.8397377000      1.0000000000
 P 1 
   1       0.2989335000      1.0000000000
 D 2 
   1       7.6909870000      0.1770780943
   2       2.3044972000      0.8918319220
 D 1 
   1       0.8403987000      1.0000000000
 D 1 
   1       0.3303797000      1.0000000000
 F 2 
   1       2.3331076000      0.6223178877
   2       0.8446137000      0.5036714203
 G 1 
   1       1.4037700000     -1.0000000000
  end;

 # Auxiliary/J basis set for element : O 
 NewAuxJGTO O 
 S 7 
   1    2876.8216605000      0.0168151159
   2    1004.7443032000      0.0340137548
   3     369.7579954000      0.1194951309
   4     142.9442404000      0.2664627624
   5      57.8366425000      0.4202764046
   6      24.3864983000      0.2765077335
   7      10.6622662000      0.0057008815
 S 1 
   1       4.8070437000     -1.0000000000
 S 1 
   1       2.2210770000      1.0000000000
 S 1 
   1       1.0447795000      1.0000000000
 S 1 
   1       0.4968425000      1.0000000000
 S 1 
   1       0.2371384000      1.0000000000
 P 2 
   1      64.2613382000     -0.2731534179
   2      16.3006076000     -0.8168011598
 P 1 
   1       4.3550542000      1.0000000000
 P 1 
   1       1.2019554000      1.0000000000
 P 1 
   1       0.3354196000      1.0000000000
 D 2 
   1       9.2146611000     -0.4661230638
   2       2.8435251000     -0.6600908911
 D 1 
   1       0.9955759000     -1.0000000000
 D 1 
   1       0.3649441000     -1.0000000000
 F 2 
   1       2.6420115000      0.5931563945
   2       0.7345613000      0.5931563945
 G 1 
   1       1.3931000000     -1.0000000000
  end;

------------------------------------------------------------------------------
                           ORCA GTO INTEGRAL CALCULATION
                           -- RI-GTO INTEGRALS CHOSEN --
------------------------------------------------------------------------------
------------------------------------------------------------------------------
                   ___                                                        
                  /   \      - P O W E R E D   B Y -                         
                 /     \                                                     
                 |  |  |   _    _      __       _____    __    __             
                 |  |  |  | |  | |    /  \     |  _  \  |  |  /  |          
                  \  \/   | |  | |   /    \    | | | |  |  | /  /          
                 / \  \   | |__| |  /  /\  \   | |_| |  |  |/  /          
                |  |  |   |  __  | /  /__\  \  |    /   |      \           
                |  |  |   | |  | | |   __   |  |    \   |  |\   \          
                \     /   | |  | | |  |  |  |  | |\  \  |  | \   \       
                 \___/    |_|  |_| |__|  |__|  |_| \__\ |__|  \__/        
                                                                              
                      - O R C A' S   B I G   F R I E N D -                    
                                      &                                       
                       - I N T E G R A L  F E E D E R -                       
                                                                              
 v1 FN, 2020, v2 2021                                                         
------------------------------------------------------------------------------


Reading SHARK input file diazo_c01_sp.SHARKINP.tmp ... ok
----------------------
SHARK INTEGRAL PACKAGE
----------------------

Number of atoms                             ...     11
Number of basis functions                   ...    241
Number of shells                            ...     93
Maximum angular momentum                    ...      3
Integral batch strategy                     ... SHARK/LIBINT Hybrid
RI-J (if used) integral strategy            ... SPLIT-RIJ (Revised 2003 algorithm where possible)
Printlevel                                  ...      1
Contraction scheme used                     ... SEGMENTED contraction
Coulomb Range Separation                    ... NOT USED
Exchange Range Separation                   ... NOT USED
Finite Nucleus Model                        ... NOT USED
Auxiliary Coulomb fitting basis             ... AVAILABLE
   # of basis functions in Aux-J            ...    387
   # of shells in Aux-J                     ...    125
   Maximum angular momentum in Aux-J        ...      4
Auxiliary J/K fitting basis                 ... NOT available
Auxiliary Correlation fitting basis         ... NOT available
Auxiliary 'external' fitting basis          ... NOT available
Integral threshold                          ...     2.500000e-11
Primitive cut-off                           ...     2.500000e-12
Primitive pair pre-selection threshold      ...     2.500000e-12

Calculating pre-screening integrals         ... done (  0.0 sec) Dimension = 93
Organizing shell pair data                  ... done (  0.1 sec)
Shell pair information
Total number of shell pairs                 ...      4371
Shell pairs after pre-screening             ...      3919
Total number of primitive shell pairs       ...     13696
Primitive shell pairs kept                  ...      9220
          la=0 lb=0:    962 shell pairs
          la=1 lb=0:   1071 shell pairs
          la=1 lb=1:    312 shell pairs
          la=2 lb=0:    579 shell pairs
          la=2 lb=1:    328 shell pairs
          la=2 lb=2:     98 shell pairs
          la=3 lb=0:    288 shell pairs
          la=3 lb=1:    163 shell pairs
          la=3 lb=2:     92 shell pairs
          la=3 lb=3:     26 shell pairs

Calculating one electron integrals          ... done (  0.0 sec)
Calculating RI/J V-Matrix + Cholesky decomp.... done (  0.0 sec)
Calculating Nuclear repulsion               ... done (  0.0 sec) ENN=    278.708772554823 Eh

SHARK setup successfully completed in   0.3 seconds

Maximum memory used throughout the entire GTOINT-calculation: 65.8 MB
-------------------------------------------------------------------------------
                                 ORCA SCF
-------------------------------------------------------------------------------

------------
SCF SETTINGS
------------
Hamiltonian:
 Density Functional     Method          .... DFT(GTOs)
 Exchange Functional    Exchange        .... B88
   X-Alpha parameter    XAlpha          ....  0.666667
   Becke's b parameter  XBeta           ....  0.004200
 Correlation Functional Correlation     .... LYP
 LDA part of GGA corr.  LDAOpt          .... VWN-5
 Gradients option       PostSCFGGA      .... off
 Hybrid DFT is turned on
   Fraction HF Exchange ScalHFX         ....  0.200000
   Scaling of DF-GGA-X  ScalDFX         ....  0.720000
   Scaling of DF-GGA-C  ScalDFC         ....  0.810000
   Scaling of DF-LDA-C  ScalLDAC        ....  1.000000
   Perturbative correction              ....  0.000000
   Density functional embedding theory  .... OFF
   NL short-range parameter             ....  4.800000
 RI-approximation to the Coulomb term is turned on
   Number of AuxJ basis functions       .... 387
   RIJ-COSX (HFX calculated with COS-X)).... on


General Settings:
 Integral files         IntName         .... diazo_c01_sp
 Hartree-Fock type      HFTyp           .... RHF
 Total Charge           Charge          ....    0
 Multiplicity           Mult            ....    1
 Number of Electrons    NEL             ....   52
 Basis Dimension        Dim             ....  241
 Nuclear Repulsion      ENuc            ....    278.7087725548 Eh

Convergence Acceleration:
 DIIS                   CNVDIIS         .... on
   Start iteration      DIISMaxIt       ....    12
   Startup error        DIISStart       ....  0.200000
   # of expansion vecs  DIISMaxEq       ....     5
   Bias factor          DIISBfac        ....   1.050
   Max. coefficient     DIISMaxC        ....  10.000
 Trust-Rad. Augm. Hess. CNVTRAH         .... auto
   Auto Start mean grad. ratio tolernc. ....  1.125000
   Auto Start start iteration           ....    20
   Auto Start num. interpolation iter.  ....    10
   Max. Number of Micro iterations      ....    16
   Max. Number of Macro iterations      .... Maxiter - #DIIS iter
   Number of Davidson start vectors     ....     2
   Converg. threshold I  (grad. norm)   ....   1.000e-05
   Converg. threshold II (energy diff.) ....   1.000e-08
   Grad. Scal. Fac. for Micro threshold ....   0.100
   Minimum threshold for Micro iter.    ....   0.010
   NR start threshold (gradient norm)   ....   0.001
   Initial trust radius                 ....   0.400
   Minimum AH scaling param. (alpha)    ....   1.000
   Maximum AH scaling param. (alpha)    .... 1000.000
   Orbital update algorithm             .... Taylor
   White noise on init. David. guess    .... on
   Maximum white noise                  ....   0.010
   Quad. conv. algorithm                .... NR
 SOSCF                  CNVSOSCF        .... on
   Start iteration      SOSCFMaxIt      ....   150
   Startup grad/error   SOSCFStart      ....  0.003300
 Level Shifting         CNVShift        .... on
   Level shift para.    LevelShift      ....    0.2500
   Turn off err/grad.   ShiftErr        ....    0.0010
 Zerner damping         CNVZerner       .... off
 Static damping         CNVDamp         .... on
   Fraction old density DampFac         ....    0.7000
   Max. Damping (<1)    DampMax         ....    0.9800
   Min. Damping (>=0)   DampMin         ....    0.0000
   Turn off err/grad.   DampErr         ....    0.1000
 Fernandez-Rico         CNVRico         .... off

SCF Procedure:
 Maximum # iterations   MaxIter         ....   125
 SCF integral mode      SCFMode         .... Direct
   Integral package                     .... SHARK and LIBINT hybrid scheme
 Reset frequency        DirectResetFreq ....    20
 Integral Threshold     Thresh          ....  2.500e-11 Eh
 Primitive CutOff       TCut            ....  2.500e-12 Eh

Convergence Tolerance:
 Convergence Check Mode ConvCheckMode   .... Total+1el-Energy
 Convergence forced     ConvForced      .... 0
 Energy Change          TolE            ....  1.000e-08 Eh
 1-El. energy change                    ....  1.000e-05 Eh
 Orbital Gradient       TolG            ....  1.000e-05
 Orbital Rotation angle TolX            ....  1.000e-05
 DIIS Error             TolErr          ....  5.000e-07


Diagonalization of the overlap matrix:
Smallest eigenvalue                        ... 1.649e-04
Time for diagonalization                   ...    0.021 sec
Threshold for overlap eigenvalues          ... 1.000e-08
Number of eigenvalues below threshold      ... 0
Time for construction of square roots      ...    0.003 sec
Total time needed                          ...    0.024 sec

Time for model grid setup =    0.136 sec

------------------------------
INITIAL GUESS: MODEL POTENTIAL
------------------------------
Loading Hartree-Fock densities                     ... done
Calculating cut-offs                               ... done
Initializing the effective Hamiltonian             ... done
Setting up the integral package (SHARK)            ... done
Starting the Coulomb interaction                   ... done (   0.1 sec)
Reading the grid                                   ... done
Mapping shells                                     ... done
Starting the XC term evaluation                    ... done (   0.3 sec)
  promolecular density results
     # of electrons  =     51.997788496
     EX              =    -46.106949479
     EC              =     -1.805314956
     EX+EC           =    -47.912264435
Transforming the Hamiltonian                       ... done (   0.0 sec)
Diagonalizing the Hamiltonian                      ... done (   0.0 sec)
Back transforming the eigenvectors                 ... done (   0.0 sec)
Now organizing SCF variables                       ... done
                      ------------------
                      INITIAL GUESS DONE (   0.5 sec)
                      ------------------
-------------------
DFT GRID GENERATION
-------------------

General Integration Accuracy     IntAcc      ... 4.388
Radial Grid Type                 RadialGrid  ... OptM3 with GC (2021)
Angular Grid (max. ang.)         AngularGrid ... 4 (Lebedev-302)
Angular grid pruning method      GridPruning ... 4 (adaptive)
Weight generation scheme         WeightScheme... Becke
Basis function cutoff            BFCut       ... 1.0000e-11
Integration weight cutoff        WCut        ... 1.0000e-14
Angular grids for H and He will be reduced by one unit
Partially contracted basis set               ... off
Rotationally invariant grid construction     ... off

Total number of grid points                  ...    55540
Total number of batches                      ...      875
Average number of points per batch           ...       63
Average number of grid points per atom       ...     5049
Time for grid setup =    0.522 sec

--------------------
COSX GRID GENERATION
--------------------

GRIDX 1
-------
General Integration Accuracy     IntAcc      ... 3.816
Radial Grid Type                 RadialGrid  ... OptM3 with GC (2021)
Angular Grid (max. ang.)         AngularGrid ... 1 (Lebedev-50)
Angular grid pruning method      GridPruning ... 4 (adaptive)
Weight generation scheme         WeightScheme... Becke
Basis function cutoff            BFCut       ... 1.0000e-11
Integration weight cutoff        WCut        ... 1.0000e-14
Angular grids for H and He will be reduced by one unit
Partially contracted basis set               ... on
Rotationally invariant grid construction     ... off

Total number of grid points                  ...     7069
Total number of batches                      ...      116
Average number of points per batch           ...       60
Average number of grid points per atom       ...      643
UseSFitting                                  ... on

GRIDX 2
-------
General Integration Accuracy     IntAcc      ... 4.020
Radial Grid Type                 RadialGrid  ... OptM3 with GC (2021)
Angular Grid (max. ang.)         AngularGrid ... 2 (Lebedev-110)
Angular grid pruning method      GridPruning ... 4 (adaptive)
Weight generation scheme         WeightScheme... Becke
Basis function cutoff            BFCut       ... 1.0000e-11
Integration weight cutoff        WCut        ... 1.0000e-14
Angular grids for H and He will be reduced by one unit
Partially contracted basis set               ... on
Rotationally invariant grid construction     ... off

Total number of grid points                  ...    15970
Total number of batches                      ...      256
Average number of points per batch           ...       62
Average number of grid points per atom       ...     1452
UseSFitting                                  ... on

GRIDX 3
-------
General Integration Accuracy     IntAcc      ... 4.338
Radial Grid Type                 RadialGrid  ... OptM3 with GC (2021)
Angular Grid (max. ang.)         AngularGrid ... 3 (Lebedev-194)
Angular grid pruning method      GridPruning ... 4 (adaptive)
Weight generation scheme         WeightScheme... Becke
Basis function cutoff            BFCut       ... 1.0000e-11
Integration weight cutoff        WCut        ... 1.0000e-14
Angular grids for H and He will be reduced by one unit
Partially contracted basis set               ... on
Rotationally invariant grid construction     ... off

Total number of grid points                  ...    35326
Total number of batches                      ...      557
Average number of points per batch           ...       63
Average number of grid points per atom       ...     3211
UseSFitting                                  ... on

Time for X-Grid setup             =    1.060 sec


--------------------
CPCM SOLVATION MODEL
--------------------
CPCM parameters:
  Epsilon                                         ...       9.0800
  Refrac                                          ...       1.4240
  Rsolv                                           ...       1.3000
  Surface type                                    ... GAUSSIAN VDW
  Epsilon function type                           ...         CPCM
Radii:
 Radius for C  used is    3.8550 Bohr (=   2.0400 Ang.)
 Radius for N  used is    3.5149 Bohr (=   1.8600 Ang.)
 Radius for O  used is    3.4469 Bohr (=   1.8240 Ang.)
 Radius for H  used is    2.4944 Bohr (=   1.3200 Ang.)
Calculating surface                               ...        done! (  0.0s)
GEPOL surface points                              ...          700
GEPOL Volume                                      ...     804.6127
GEPOL Surface-area                                ...     497.4862
Calculating surface distance matrix               ...        done! (  0.0s)
Performing Cholesky decomposition & store         ...        done! (  0.0s)
Overall time for CPCM initialization              ...                 0.0s
--------------
SCF ITERATIONS
--------------
ITER       Energy         Delta-E        Max-DP      RMS-DP      [F,P]     Damp
               ***  Starting incremental Fock matrix formation  ***
  0   -376.4176732252   0.000000000000 0.06117273  0.00105566  0.3188131 0.7000
  1   -376.5047661673  -0.087092942096 0.03446718  0.00071213  0.1221437 0.7000
                               ***Turning on DIIS***
  2   -376.5350380100  -0.030271842770 0.03531740  0.00102053  0.0319283 0.0000
  3   -376.5897722721  -0.054734262033 0.02378673  0.00056114  0.0647320 0.0000
  4   -376.5985490511  -0.008776779040 0.00615124  0.00017466  0.0208040 0.0000
                      *** Initiating the SOSCF procedure ***
                           *** Shutting down DIIS ***
                      *** Re-Reading the Fockian *** 
                      *** Removing any level shift *** 
ITER      Energy       Delta-E        Grad      Rot      Max-DP    RMS-DP
  5   -376.59935641  -0.0008073549  0.000811  0.000811  0.002009  0.000053
               *** Restarting incremental Fock matrix formation ***
  6   -376.59937873  -0.0000223196  0.000574  0.001881  0.002042  0.000041
  7   -376.59935146   0.0000272673  0.001371  0.001961  0.001562  0.000023
  8   -376.59938773  -0.0000362703  0.000115  0.000314  0.000382  0.000006
  9   -376.59938697   0.0000007539  0.000202  0.000229  0.000260  0.000004
 10   -376.59938810  -0.0000011214  0.000025  0.000064  0.000064  0.000002
 11   -376.59938807   0.0000000241  0.000042  0.000059  0.000051  0.000001
 12   -376.59938811  -0.0000000419  0.000007  0.000008  0.000015  0.000000
 13   -376.59938811  -0.0000000005  0.000007  0.000005  0.000008  0.000000
                 **** Energy Check signals convergence ****
              ***Rediagonalizing the Fockian in SOSCF/NRSCF***

               *****************************************************
               *                     SUCCESS                       *
               *           SCF CONVERGED AFTER  14 CYCLES          *
               *****************************************************

Old exchange energy                            =     -9.302292019 Eh
New exchange energy                            =     -9.302300670 Eh
Exchange energy change after final integration =     -0.000008651 Eh
Total energy after final integration           =   -376.599396766 Eh
Final COS-X integration done in                =    11.587 sec

----------------
TOTAL SCF ENERGY
----------------

Total Energy       :         -376.59939677 Eh          -10247.79057 eV

Components:
Nuclear Repulsion  :          278.70877255 Eh            7584.05127 eV
Electronic Energy  :         -655.30816932 Eh          -17831.84184 eV
One Electron Energy:        -1064.39998282 Eh          -28963.79602 eV
Two Electron Energy:          409.09181350 Eh           11131.95418 eV
Max COSX asymmetry :            0.00000132 Eh               0.00004 eV
CPCM Dielectric    :           -0.01019516 Eh              -0.27742 eV

Virial components:
Potential Energy   :         -751.55250689 Eh          -20450.78341 eV
Kinetic Energy     :          374.95311012 Eh           10202.99284 eV
Virial Ratio       :            2.00439065


DFT components:
N(Alpha)           :       26.000012411914 electrons
N(Beta)            :       26.000012411914 electrons
N(Total)           :       52.000024823828 electrons
E(X)               :      -37.083552519832 Eh       
E(C)               :       -2.129180435641 Eh       
E(XC)              :      -39.212732955474 Eh       
DFET-embed. en.    :        0.000000000000 Eh       
CPCM Solvation Model Properties:
Surface-charge          :           -0.01765712
Charge-correction       :           -0.00006499 Eh              -0.00177 eV
Free-energy (cav+disp)  :  This term is not implemented in the current solvation scheme

---------------
SCF CONVERGENCE
---------------

  Last Energy change         ...   -1.2902e-09  Tolerance :   1.0000e-08
  Last MAX-Density change    ...    9.9920e-16  Tolerance :   1.0000e-07
  Last RMS-Density change    ...    1.5758e-17  Tolerance :   5.0000e-09
  Last Orbital Gradient      ...    3.8065e-07  Tolerance :   1.0000e-05
  Last Orbital Rotation      ...    1.1508e-06  Tolerance :   1.0000e-05

             **** THE GBW FILE WAS UPDATED (diazo_c01_sp.gbw) ****
             **** DENSITY diazo_c01_sp.scfp WAS UPDATED ****
             **** ENERGY FILE WAS UPDATED (diazo_c01_sp.en.tmp) ****
             **** THE GBW FILE WAS UPDATED (diazo_c01_sp.gbw) ****
             **** DENSITY diazo_c01_sp.scfp WAS UPDATED ****
----------------
ORBITAL ENERGIES
----------------

  NO   OCC          E(Eh)            E(eV) 
   0   2.0000     -19.176689      -521.8242 
   1   2.0000     -19.115042      -520.1467 
   2   2.0000     -14.480962      -394.0470 
   3   2.0000     -14.419059      -392.3626 
   4   2.0000     -10.314191      -280.6634 
   5   2.0000     -10.229643      -278.3627 
   6   2.0000     -10.222597      -278.1710 
   7   2.0000      -1.138085       -30.9689 
   8   2.0000      -1.111576       -30.2475 
   9   2.0000      -1.023995       -27.8643 
  10   2.0000      -0.874909       -23.8075 
  11   2.0000      -0.742346       -20.2003 
  12   2.0000      -0.626501       -17.0480 
  13   2.0000      -0.553765       -15.0687 
  14   2.0000      -0.545986       -14.8570 
  15   2.0000      -0.512130       -13.9358 
  16   2.0000      -0.483767       -13.1640 
  17   2.0000      -0.482563       -13.1312 
  18   2.0000      -0.476184       -12.9576 
  19   2.0000      -0.451793       -12.2939 
  20   2.0000      -0.417577       -11.3629 
  21   2.0000      -0.401695       -10.9307 
  22   2.0000      -0.364743        -9.9252 
  23   2.0000      -0.313787        -8.5386 
  24   2.0000      -0.295563        -8.0427 
  25   2.0000      -0.250221        -6.8089 
  26   0.0000      -0.072190        -1.9644 
  27   0.0000      -0.042767        -1.1638 
  28   0.0000       0.053381         1.4526 
  29   0.0000       0.065735         1.7887 
  30   0.0000       0.075389         2.0514 
  31   0.0000       0.092243         2.5100 
  32   0.0000       0.108735         2.9588 
  33   0.0000       0.127964         3.4821 
  34   0.0000       0.128532         3.4975 
  35   0.0000       0.177150         4.8205 
  36   0.0000       0.181924         4.9504 
  37   0.0000       0.194642         5.2965 
  38   0.0000       0.195903         5.3308 
  39   0.0000       0.229027         6.2321 
  40   0.0000       0.245667         6.6849 
  41   0.0000       0.254078         6.9138 
  42   0.0000       0.278778         7.5859 
  43   0.0000       0.282355         7.6833 
  44   0.0000       0.307424         8.3654 
  45   0.0000       0.322024         8.7627 
  46   0.0000       0.333220         9.0674 
  47   0.0000       0.343863         9.3570 
  48   0.0000       0.353883         9.6296 
  49   0.0000       0.374939        10.2026 
  50   0.0000       0.390200        10.6179 
  51   0.0000       0.413622        11.2552 
  52   0.0000       0.434906        11.8344 
  53   0.0000       0.434987        11.8366 
  54   0.0000       0.443566        12.0700 
  55   0.0000       0.446622        12.1532 
  56   0.0000       0.462992        12.5987 
  57   0.0000       0.491442        13.3728 
  58   0.0000       0.502085        13.6624 
  59   0.0000       0.521782        14.1984 
  60   0.0000       0.543565        14.7912 
  61   0.0000       0.551519        15.0076 
  62   0.0000       0.571974        15.5642 
  63   0.0000       0.595305        16.1991 
  64   0.0000       0.613386        16.6911 
  65   0.0000       0.633924        17.2500 
  66   0.0000       0.644738        17.5442 
  67   0.0000       0.699311        19.0292 
  68   0.0000       0.701391        19.0858 
  69   0.0000       0.750571        20.4241 
  70   0.0000       0.802102        21.8263 
  71   0.0000       0.803826        21.8732 
  72   0.0000       0.819526        22.3004 
  73   0.0000       0.850338        23.1389 
  74   0.0000       0.862486        23.4694 
  75   0.0000       0.884287        24.0627 
  76   0.0000       0.900086        24.4926 
  77   0.0000       0.904246        24.6058 
  78   0.0000       0.932994        25.3880 
  79   0.0000       0.976878        26.5822 
  80   0.0000       1.010336        27.4926 
  81   0.0000       1.015459        27.6320 
  82   0.0000       1.057791        28.7839 
  83   0.0000       1.067157        29.0388 
  84   0.0000       1.143591        31.1187 
  85   0.0000       1.207956        32.8701 
  86   0.0000       1.273575        34.6557 
  87   0.0000       1.275402        34.7055 
  88   0.0000       1.323047        36.0019 
  89   0.0000       1.337039        36.3827 
  90   0.0000       1.356554        36.9137 
  91   0.0000       1.412348        38.4319 
  92   0.0000       1.419238        38.6194 
  93   0.0000       1.446220        39.3536 
  94   0.0000       1.470885        40.0248 
  95   0.0000       1.479176        40.2504 
  96   0.0000       1.494428        40.6654 
  97   0.0000       1.504595        40.9421 
  98   0.0000       1.520570        41.3768 
  99   0.0000       1.553112        42.2623 
 100   0.0000       1.573151        42.8076 
 101   0.0000       1.599818        43.5332 
 102   0.0000       1.664613        45.2964 
 103   0.0000       1.698312        46.2134 
 104   0.0000       1.705474        46.4083 
 105   0.0000       1.708139        46.4808 
 106   0.0000       1.734526        47.1989 
 107   0.0000       1.790930        48.7337 
 108   0.0000       1.822891        49.6034 
 109   0.0000       1.840665        50.0870 
 110   0.0000       1.872893        50.9640 
 111   0.0000       1.904583        51.8263 
 112   0.0000       1.926064        52.4109 
 113   0.0000       1.960459        53.3468 
 114   0.0000       1.990335        54.1598 
 115   0.0000       2.000167        54.4273 
 116   0.0000       2.016318        54.8668 
 117   0.0000       2.051271        55.8179 
 118   0.0000       2.097169        57.0669 
 119   0.0000       2.130470        57.9730 
 120   0.0000       2.139624        58.2221 
 121   0.0000       2.176137        59.2157 
 122   0.0000       2.186258        59.4911 
 123   0.0000       2.199756        59.8584 
 124   0.0000       2.238764        60.9199 
 125   0.0000       2.255806        61.3836 
 126   0.0000       2.274131        61.8822 
 127   0.0000       2.302863        62.6641 
 128   0.0000       2.330423        63.4140 
 129   0.0000       2.383768        64.8656 
 130   0.0000       2.390959        65.0613 
 131   0.0000       2.483369        67.5759 
 132   0.0000       2.494188        67.8703 
 133   0.0000       2.527528        68.7775 
 134   0.0000       2.542351        69.1809 
 135   0.0000       2.571625        69.9775 
 136   0.0000       2.606346        70.9223 
 137   0.0000       2.634830        71.6974 
 138   0.0000       2.664615        72.5079 
 139   0.0000       2.717787        73.9547 
 140   0.0000       2.730540        74.3018 
 141   0.0000       2.772463        75.4426 
 142   0.0000       2.784037        75.7575 
 143   0.0000       2.826567        76.9148 
 144   0.0000       2.881393        78.4067 
 145   0.0000       2.905389        79.0597 
 146   0.0000       2.997924        81.5777 
 147   0.0000       3.007943        81.8503 
 148   0.0000       3.022749        82.2532 
 149   0.0000       3.063224        83.3545 
 150   0.0000       3.117711        84.8372 
 151   0.0000       3.123823        85.0035 
 152   0.0000       3.137935        85.3875 
 153   0.0000       3.170053        86.2615 
 154   0.0000       3.182616        86.6034 
 155   0.0000       3.198677        87.0404 
 156   0.0000       3.217733        87.5590 
 157   0.0000       3.276439        89.1564 
 158   0.0000       3.297318        89.7246 
 159   0.0000       3.309416        90.0538 
 160   0.0000       3.338717        90.8511 
 161   0.0000       3.339312        90.8673 
 162   0.0000       3.366674        91.6119 
 163   0.0000       3.389057        92.2209 
 164   0.0000       3.406026        92.6827 
 165   0.0000       3.445189        93.7483 
 166   0.0000       3.452700        93.9527 
 167   0.0000       3.492443        95.0342 
 168   0.0000       3.554366        96.7192 
 169   0.0000       3.577389        97.3457 
 170   0.0000       3.602515        98.0294 
 171   0.0000       3.605214        98.1029 
 172   0.0000       3.635512        98.9273 
 173   0.0000       3.666324        99.7657 
 174   0.0000       3.702892       100.7608 
 175   0.0000       3.757562       102.2485 
 176   0.0000       3.809273       103.6556 
 177   0.0000       3.874255       105.4238 
 178   0.0000       3.970915       108.0541 
 179   0.0000       3.991402       108.6116 
 180   0.0000       4.100562       111.5820 
 181   0.0000       4.111817       111.8882 
 182   0.0000       4.149182       112.9050 
 183   0.0000       4.164014       113.3086 
 184   0.0000       4.173647       113.5707 
 185   0.0000       4.247913       115.5916 
 186   0.0000       4.284178       116.5784 
 187   0.0000       4.292531       116.8057 
 188   0.0000       4.351926       118.4219 
 189   0.0000       4.362802       118.7179 
 190   0.0000       4.407768       119.9415 
 191   0.0000       4.429262       120.5263 
 192   0.0000       4.503662       122.5509 
 193   0.0000       4.524508       123.1181 
 194   0.0000       4.526333       123.1678 
 195   0.0000       4.588898       124.8703 
 196   0.0000       4.655072       126.6709 
 197   0.0000       4.689364       127.6041 
 198   0.0000       4.756765       129.4381 
 199   0.0000       4.782355       130.1345 
 200   0.0000       4.870223       132.5255 
 201   0.0000       5.011811       136.3783 
 202   0.0000       5.116492       139.2268 
 203   0.0000       5.154814       140.2696 
 204   0.0000       5.187669       141.1637 
 205   0.0000       5.191451       141.2666 
 206   0.0000       5.295260       144.0913 
 207   0.0000       5.307712       144.4302 
 208   0.0000       5.338891       145.2786 
 209   0.0000       5.476341       149.0188 
 210   0.0000       5.505104       149.8015 
 211   0.0000       5.620514       152.9420 
 212   0.0000       5.661158       154.0479 
 213   0.0000       5.823179       158.4568 
 214   0.0000       5.959223       162.1587 
 215   0.0000       6.064206       165.0154 
 216   0.0000       6.160497       167.6357 
 217   0.0000       6.166131       167.7890 
 218   0.0000       6.333065       172.3315 
 219   0.0000       6.371248       173.3705 
 220   0.0000       6.429466       174.9547 
 221   0.0000       6.474491       176.1799 
 222   0.0000       6.535356       177.8361 
 223   0.0000       6.550983       178.2613 
 224   0.0000       6.630451       180.4238 
 225   0.0000       6.655687       181.1105 
 226   0.0000       6.752334       183.7404 
 227   0.0000       6.853862       186.5031 
 228   0.0000       6.865659       186.8241 
 229   0.0000       7.007006       190.6703 
 230   0.0000       7.033876       191.4015 
 231   0.0000       7.104816       193.3319 
 232   0.0000       7.267966       197.7714 
 233   0.0000       7.413434       201.7298 
 234   0.0000      22.264669       605.8525 
 235   0.0000      22.716201       618.1392 
 236   0.0000      23.275997       633.3721 
 237   0.0000      31.633960       860.8038 
 238   0.0000      32.912097       895.5837 
 239   0.0000      43.860859      1193.5147 
 240   0.0000      44.065035      1199.0706 
------------------
MOLECULAR ORBITALS
------------------
                      0         1         2         3         4         5   
                 -19.17669 -19.11504 -14.48096 -14.41906 -10.31419 -10.22964
                   2.00000   2.00000   2.00000   2.00000   2.00000   2.00000
                  --------  --------  --------  --------  --------  --------
  0C   1s         0.000015  0.000009  0.000051  0.000003  0.000884  0.466844
  0C   2s        -0.000072 -0.000044 -0.000254 -0.000016  0.001275  0.608010
  0C   3s         0.000337  0.000283 -0.000036 -0.000432 -0.000160  0.041140
  0C   4s         0.004561  0.002379  0.021520 -0.005363  0.008583 -0.023574
  0C   5s         0.004582 -0.001112 -0.007477 -0.001743 -0.015535 -0.001585
  0C   1pz        0.000003  0.000014 -0.000013  0.000002  0.000001  0.000056
  0C   1px       -0.000063 -0.000055  0.000820 -0.000195 -0.000032  0.001854
  0C   1py       -0.000020  0.000085  0.000528 -0.000133 -0.000011  0.001942
  0C   2pz        0.000599  0.000520 -0.000648 -0.000053  0.000947 -0.000740
  0C   2px       -0.003430 -0.003257  0.017572 -0.001033 -0.005764  0.008168
  0C   2py        0.002566  0.002019  0.008077 -0.001283  0.003798 -0.000107
  0C   3pz        0.000197  0.000195 -0.000627  0.000244 -0.000515 -0.000428
  0C   3px       -0.000803  0.003069 -0.000747 -0.001054  0.003070 -0.004418
  0C   3py        0.001097  0.004139 -0.006105  0.001312 -0.002132 -0.007248
  0C   1dz2      -0.000099 -0.000090 -0.000431  0.000024  0.000116 -0.001640
  0C   1dxz      -0.000019 -0.000020 -0.000038  0.000001  0.000043 -0.000240
  0C   1dyz       0.000011  0.000025 -0.000006 -0.000009 -0.000035  0.000208
  0C   1dx2y2     0.000058 -0.000013  0.000374  0.000033 -0.000046  0.000584
  0C   1dxy       0.000019 -0.000064  0.000549  0.000004  0.000181  0.000607
  0C   2dz2       0.000225  0.000528 -0.002514 -0.000272 -0.000043 -0.001121
  0C   2dxz      -0.000238 -0.000205  0.000137  0.000071 -0.000061  0.000412
  0C   2dyz       0.000181  0.000110 -0.000138  0.000050  0.000099 -0.000051
  0C   2dx2y2    -0.000029  0.000077  0.001187 -0.000456 -0.000239 -0.001013
  0C   2dxy      -0.002407 -0.002444  0.005543  0.000624 -0.000662  0.004301
  0C   1f0        0.000000  0.000018  0.000010  0.000005  0.000128  0.000175
  0C   1f+1      -0.000010  0.000011 -0.000215 -0.000160 -0.000317 -0.000678
  0C   1f-1      -0.000002  0.000074 -0.000134 -0.000107  0.000175  0.000075
  0C   1f+2      -0.000017  0.000008 -0.000099  0.000002 -0.000099  0.000131
  0C   1f-2      -0.000041 -0.000010  0.000022 -0.000005  0.000239 -0.000033
  0C   1f+3      -0.000236 -0.000108 -0.000135  0.000068  0.000365 -0.000026
  0C   1f-3      -0.000083 -0.000035  0.000195 -0.000262  0.000899 -0.001524
  1C   1s         0.000042  0.000041  0.000009  0.000000  0.466973 -0.000969
  1C   2s        -0.000227 -0.000248 -0.000049 -0.000001  0.607998 -0.001139
  1C   3s        -0.000337  0.000511  0.000245  0.000174  0.038799 -0.000038
  1C   4s         0.001246  0.003066  0.003555 -0.000100 -0.018322  0.005714
  1C   5s        -0.004962 -0.001778  0.006552 -0.001332  0.015364 -0.000941
  1C   1pz       -0.000012  0.000073 -0.000009  0.000004  0.000042 -0.000030
  1C   1px        0.000038  0.000067  0.000115 -0.000003 -0.000205  0.000296
  1C   1py       -0.000077  0.000704  0.000009  0.000034  0.000212 -0.000034
  1C   2pz        0.000426  0.001413 -0.000434 -0.000145  0.001968 -0.000393
  1C   2px       -0.008693 -0.002998  0.001708  0.000450 -0.008346  0.001787
  1C   2py       -0.003126  0.010162 -0.002484 -0.000928  0.010837 -0.002054
  1C   3pz        0.000282 -0.000890 -0.000466  0.000158 -0.001151 -0.000279
  1C   3px        0.001587 -0.000268  0.003582 -0.001575  0.007358  0.005037
  1C   3py        0.003778 -0.008102 -0.001282  0.000162 -0.004337  0.001528
  1C   1dz2      -0.000311 -0.000218 -0.000070  0.000027 -0.002213  0.000149
  1C   1dxz      -0.000023 -0.000006 -0.000021  0.000008 -0.000223  0.000039
  1C   1dyz       0.000001  0.000088  0.000008 -0.000016  0.000540 -0.000057
  1C   1dx2y2     0.000212 -0.000367  0.000076  0.000041 -0.001096  0.000081
  1C   1dxy       0.000397 -0.000040 -0.000024  0.000061  0.000263  0.000197
  1C   2dz2      -0.001104 -0.001659  0.000134  0.000140 -0.000965  0.000230
  1C   2dxz       0.000497  0.000272 -0.000101 -0.000086  0.000819  0.000201
  1C   2dyz      -0.000234  0.000938  0.000167 -0.000008  0.000403  0.000052
  1C   2dx2y2    -0.000467 -0.005623 -0.000529  0.000357 -0.005377 -0.001252
  1C   2dxy       0.005511  0.000307 -0.001468 -0.000663  0.004314  0.000458
  1C   1f0        0.000011 -0.000091 -0.000024  0.000014 -0.000358 -0.000176
  1C   1f+1       0.000482  0.000011  0.000078 -0.000014  0.000729  0.000456
  1C   1f-1       0.000421 -0.000303 -0.000026  0.000038 -0.000658 -0.000231
  1C   1f+2       0.000129 -0.000038  0.000023  0.000005 -0.000403  0.000126
  1C   1f-2      -0.000001 -0.000073  0.000031 -0.000005 -0.000052 -0.000253
  1C   1f+3       0.000049 -0.000055  0.000276 -0.000058 -0.000536 -0.000216
  1C   1f-3       0.000161 -0.000156  0.000094 -0.000046  0.002319 -0.000904
  2N   1s        -0.000002 -0.000006  0.448279  0.004734  0.000004 -0.000059
  2N   2s         0.000014  0.000038  0.626212  0.006619 -0.000035 -0.000370
  2N   3s        -0.000247 -0.000572  0.045765 -0.002951  0.000418  0.006931
  2N   4s         0.002729  0.003489 -0.064208  0.011948 -0.001298 -0.032492
  2N   5s        -0.002270 -0.002990  0.033011  0.001948 -0.001586 -0.010172
  2N   1pz       -0.000000 -0.000002  0.000009  0.000009  0.000008  0.000011
  2N   1px        0.000010  0.000068  0.000146 -0.000284 -0.000098 -0.000370
  2N   1py        0.000003  0.000033  0.000194 -0.000139 -0.000003 -0.000189
  2N   2pz        0.000041  0.000051 -0.000090 -0.000200 -0.000076 -0.000010
  2N   2px       -0.000800 -0.001367  0.000049  0.008422 -0.000646 -0.002743
  2N   2py       -0.000252 -0.000614 -0.000733  0.004809 -0.001168 -0.002203
  2N   3pz       -0.000218 -0.000110 -0.000180  0.000121 -0.000007  0.000443
  2N   3px        0.003122  0.002700  0.014854 -0.006860 -0.002633 -0.020215
  2N   3py        0.000518  0.001138  0.010009 -0.004288 -0.002110 -0.011875
  2N   1dz2      -0.000057 -0.000026 -0.000916 -0.000073 -0.000001  0.000005
  2N   1dxz      -0.000016 -0.000007 -0.000054 -0.000005  0.000002  0.000004
  2N   1dyz       0.000007  0.000005 -0.000032 -0.000006 -0.000009 -0.000013
  2N   1dx2y2     0.000054  0.000012  0.000792  0.000085  0.000037  0.000055
  2N   1dxy      -0.000017 -0.000017  0.001381  0.000122  0.000049  0.000066
  2N   2dz2       0.000175 -0.000066  0.005982 -0.003192  0.000096  0.004951
  2N   2dxz       0.000043 -0.000016  0.000375 -0.000138  0.000070  0.000293
  2N   2dyz      -0.000036 -0.000030  0.000226 -0.000082  0.000036  0.000242
  2N   2dx2y2    -0.000051  0.000264 -0.005362  0.002388 -0.000529 -0.004651
  2N   2dxy       0.000081  0.000145 -0.008972  0.004959  0.000066 -0.007751
  2N   1f0       -0.000001 -0.000001  0.000002  0.000044 -0.000003  0.000014
  2N   1f+1      -0.000039 -0.000001 -0.000066 -0.000844  0.000033 -0.000323
  2N   1f-1      -0.000036 -0.000004 -0.000046 -0.000500  0.000016 -0.000202
  2N   1f+2      -0.000005  0.000004 -0.000012 -0.000029 -0.000032  0.000014
  2N   1f-2       0.000008  0.000004  0.000004 -0.000051 -0.000013 -0.000040
  2N   1f+3       0.000052  0.000038  0.000012  0.000033 -0.000176  0.000028
  2N   1f-3      -0.000014 -0.000007 -0.000033 -0.001267  0.000142 -0.000667
  3O   1s         0.435115  0.000017 -0.000001 -0.000000 -0.000022  0.000004
  3O   2s         0.639374  0.000011  0.000015  0.000001 -0.000219 -0.000044
  3O   3s         0.037787 -0.000046 -0.000208 -0.000039  0.002488  0.000479
  3O   4s        -0.032691  0.000887  0.001075  0.000344 -0.006736 -0.001571
  3O   5s         0.006952 -0.001203 -0.000156 -0.000524  0.004198  0.001222
  3O   1pz        0.000218 -0.000008  0.000000 -0.000001 -0.000003 -0.000002
  3O   1px        0.000034  0.000058  0.000024  0.000003  0.000554  0.000064
  3O   1py        0.001970 -0.000019  0.000017 -0.000003  0.000419  0.000031
  3O   2pz       -0.000512  0.000065  0.000003 -0.000001  0.000020  0.000025
  3O   2px       -0.001022  0.000060  0.000073  0.000091 -0.003566 -0.000331
  3O   2py       -0.005366  0.000620  0.000097  0.000064 -0.002666 -0.000039
  3O   3pz       -0.000202  0.000161  0.000364 -0.000053  0.000379  0.000109
  3O   3px        0.001756 -0.000834 -0.002980  0.000379 -0.000746  0.000283
  3O   3py       -0.000475  0.000772  0.000837 -0.000172  0.002768  0.001174
  3O   1dz2      -0.000269 -0.000069 -0.000013 -0.000010 -0.000015  0.000028
  3O   1dxz      -0.000061 -0.000015 -0.000003 -0.000003  0.000024 -0.000001
  3O   1dyz       0.000018  0.000008 -0.000004  0.000002 -0.000024 -0.000010
  3O   1dx2y2     0.000272  0.000051  0.000040  0.000005  0.000031  0.000046
  3O   1dxy       0.000050 -0.000001  0.000023 -0.000007  0.000249 -0.000012
  3O   2dz2       0.001645  0.000206  0.000019  0.000029  0.000990 -0.000079
  3O   2dxz       0.000356  0.000085 -0.000002  0.000011 -0.000092  0.000061
  3O   2dyz      -0.000122 -0.000020  0.000018 -0.000007  0.000094  0.000043
  3O   2dx2y2    -0.001532 -0.000345 -0.000098 -0.000023 -0.000492 -0.000468
  3O   2dxy      -0.000346  0.000194 -0.000116  0.000042 -0.002559  0.000276
  3O   1f0        0.000051  0.000005 -0.000003 -0.000001  0.000004  0.000003
  3O   1f+1      -0.000036  0.000051  0.000030  0.000006  0.000358 -0.000029
  3O   1f-1       0.000145  0.000058  0.000015  0.000001  0.000300 -0.000014
  3O   1f+2      -0.000043  0.000026  0.000011  0.000001 -0.000020  0.000004
  3O   1f-2       0.000055 -0.000003 -0.000006  0.000000  0.000001  0.000023
  3O   1f+3      -0.000114  0.000018  0.000000  0.000004 -0.000340  0.000124
  3O   1f-3       0.000371 -0.000042 -0.000028  0.000006  0.000621  0.000024
  4O   1s        -0.000014  0.435088 -0.000002 -0.000001 -0.000074  0.000002
  4O   2s        -0.000029  0.639469  0.000025  0.000008 -0.000294 -0.000017
  4O   3s        -0.000081  0.036920 -0.000231 -0.000154  0.003263  0.000071
  4O   4s         0.000899 -0.032739  0.000551  0.000824 -0.012545  0.000066
  4O   5s        -0.001179  0.013155 -0.000054 -0.000083 -0.001062 -0.001143
  4O   1pz       -0.000013 -0.000261  0.000011  0.000003 -0.000079 -0.000014
  4O   1px        0.000057  0.000112 -0.000070  0.000017  0.000079  0.000071
  4O   1py       -0.000076 -0.002237  0.000043  0.000036 -0.000639 -0.000070
  4O   2pz        0.000035  0.000828 -0.000058 -0.000053  0.001009  0.000022
  4O   2px       -0.000618 -0.000377  0.000384  0.000067 -0.000900 -0.000257
  4O   2py       -0.000164  0.007078 -0.000214 -0.000416  0.008255 -0.000023
  4O   3pz        0.000050 -0.000067  0.000047 -0.000018  0.000168  0.000110
  4O   3px       -0.000927 -0.000086 -0.000475  0.000388 -0.001451 -0.000853
  4O   3py       -0.000334 -0.000707  0.000033  0.000144  0.000305  0.000309
  4O   1dz2      -0.000062 -0.000102  0.000003 -0.000014  0.000050 -0.000009
  4O   1dxz      -0.000015  0.000006  0.000002 -0.000001  0.000005 -0.000007
  4O   1dyz       0.000015  0.000058 -0.000002  0.000001  0.000000  0.000011
  4O   1dx2y2     0.000007 -0.000297  0.000005  0.000005 -0.000041 -0.000023
  4O   1dxy      -0.000041 -0.000038  0.000015  0.000019 -0.000058 -0.000067
  4O   2dz2       0.000144  0.000677 -0.000039  0.000010  0.001343 -0.000029
  4O   2dxz       0.000073 -0.000010 -0.000010 -0.000008  0.000014  0.000024
  4O   2dyz      -0.000044 -0.000322  0.000012  0.000021 -0.000668  0.000006
  4O   2dx2y2    -0.000140  0.001519 -0.000009 -0.000083  0.003031 -0.000131
  4O   2dxy       0.000338  0.000161 -0.000042 -0.000149  0.000629  0.000149
  4O   1f0       -0.000003 -0.000034 -0.000002  0.000001 -0.000087  0.000007
  4O   1f+1      -0.000021  0.000006  0.000015 -0.000001 -0.000013 -0.000043
  4O   1f-1      -0.000026 -0.000114  0.000006  0.000001 -0.000315 -0.000010
  4O   1f+2      -0.000004 -0.000042 -0.000002  0.000004 -0.000160  0.000014
  4O   1f-2      -0.000003 -0.000001 -0.000005  0.000003  0.000017  0.000006
  4O   1f+3      -0.000003 -0.000003 -0.000030  0.000026 -0.000076  0.000077
  4O   1f-3      -0.000028  0.000157  0.000011 -0.000009  0.000655 -0.000098
  5C   1s         0.000027  0.000004  0.000002  0.000001 -0.000055 -0.000046
  5C   2s        -0.000135 -0.000019 -0.000010 -0.000003  0.000030 -0.000049
  5C   3s        -0.001793  0.000036  0.000261 -0.000033 -0.000443 -0.000208
  5C   4s         0.007330  0.000272 -0.001501  0.000305 -0.000880 -0.000129
  5C   5s        -0.003722 -0.003284 -0.001327  0.000018 -0.001201  0.002822
  5C   1pz        0.000023 -0.000008 -0.000013  0.000002  0.000029  0.000010
  5C   1px       -0.000163  0.000103  0.000053  0.000006 -0.000200 -0.000092
  5C   1py        0.000080  0.000024 -0.000076  0.000017  0.000063  0.000016
  5C   2pz       -0.000734  0.000017  0.000121 -0.000025 -0.000049 -0.000083
  5C   2px        0.004926 -0.000086 -0.000653  0.000053 -0.001046  0.000356
  5C   2py       -0.002637  0.000066  0.000546 -0.000152 -0.000717 -0.000423
  5C   3pz       -0.000089  0.000004  0.000059  0.000009  0.000049 -0.000092
  5C   3px       -0.000068 -0.000046 -0.000114 -0.000089  0.000199  0.001306
  5C   3py       -0.000568  0.000003  0.000442 -0.000017  0.000445  0.000204
  5C   1dz2      -0.000252 -0.000044 -0.000003 -0.000001  0.000152  0.000012
  5C   1dxz      -0.000102 -0.000005 -0.000000 -0.000001  0.000030 -0.000001
  5C   1dyz       0.000051 -0.000000  0.000008 -0.000002 -0.000014  0.000006
  5C   1dx2y2     0.000270  0.000038 -0.000042  0.000016 -0.000116 -0.000030
  5C   1dxy      -0.000333  0.000041 -0.000032  0.000004 -0.000047 -0.000049
  5C   2dz2      -0.001545  0.000139  0.000127 -0.000034 -0.001028 -0.000393
  5C   2dxz      -0.000603 -0.000015  0.000046 -0.000004 -0.000032 -0.000083
  5C   2dyz       0.000331  0.000012 -0.000054  0.000014  0.000108  0.000042
  5C   2dx2y2     0.001474 -0.000085  0.000041 -0.000051 -0.000008  0.000318
  5C   2dxy      -0.002010 -0.000351  0.000277 -0.000029  0.000998  0.000042
  5C   1f0        0.000155  0.000017 -0.000006  0.000002  0.000002  0.000008
  5C   1f+1      -0.000452 -0.000029  0.000006  0.000005 -0.000037 -0.000037
  5C   1f-1       0.000179  0.000037 -0.000015  0.000009 -0.000012 -0.000002
  5C   1f+2      -0.000132  0.000001  0.000004  0.000001 -0.000005 -0.000020
  5C   1f-2       0.000157  0.000018 -0.000006  0.000001 -0.000014  0.000008
  5C   1f+3      -0.000148  0.000014  0.000010 -0.000001 -0.000066 -0.000038
  5C   1f-3       0.000596  0.000030 -0.000039  0.000011 -0.000058  0.000069
  6N   1s        -0.000000  0.000001  0.004610 -0.448229  0.000000 -0.000001
  6N   2s         0.000001 -0.000004  0.006498 -0.627078  0.000001  0.000015
  6N   3s         0.000038  0.000023  0.000142 -0.033760 -0.000184 -0.001750
  6N   4s        -0.000094 -0.000147  0.019708  0.006085  0.001488  0.020084
  6N   5s        -0.002045 -0.002143 -0.029467  0.000232  0.004073  0.026068
  6N   1pz       -0.000004 -0.000001  0.000009 -0.000061 -0.000001 -0.000005
  6N   1px        0.000007  0.000000 -0.000300  0.002987  0.000017  0.000272
  6N   1py       -0.000030 -0.000006 -0.000157  0.001793  0.000000  0.000170
  6N   2pz        0.000003  0.000002  0.000176 -0.000130  0.000017  0.000214
  6N   2px        0.000035  0.000010 -0.009913  0.006045 -0.000904 -0.011466
  6N   2py        0.000056  0.000032 -0.006176  0.003570 -0.000550 -0.007042
  6N   3pz        0.000026  0.000027 -0.000190  0.000015  0.000046  0.000163
  6N   3px        0.000381  0.000403  0.008380 -0.000824 -0.001271 -0.007611
  6N   3py        0.000530  0.000550  0.004854 -0.000512 -0.000586 -0.004489
  6N   1dz2       0.000006  0.000016  0.000100  0.000595 -0.000028 -0.000009
  6N   1dxz       0.000006  0.000008  0.000003  0.000029 -0.000004 -0.000002
  6N   1dyz       0.000001 -0.000002  0.000005  0.000022  0.000003  0.000006
  6N   1dx2y2    -0.000034 -0.000027 -0.000085 -0.000497  0.000015 -0.000023
  6N   1dxy       0.000014  0.000024 -0.000173 -0.000937  0.000012 -0.000018
  6N   2dz2      -0.000006 -0.000069 -0.001131  0.001044 -0.000108 -0.002030
  6N   2dxz      -0.000008 -0.000028 -0.000036  0.000059 -0.000002 -0.000088
  6N   2dyz       0.000004  0.000007 -0.000037  0.000040 -0.000022 -0.000077
  6N   2dx2y2     0.000018  0.000111  0.000832 -0.000912  0.000176  0.001660
  6N   2dxy      -0.000050 -0.000063  0.001861 -0.001598  0.000261  0.003250
  6N   1f0        0.000002 -0.000002  0.000024  0.000011 -0.000002 -0.000003
  6N   1f+1       0.000000  0.000021 -0.000442 -0.000216 -0.000001  0.000099
  6N   1f-1       0.000008  0.000008 -0.000258 -0.000128 -0.000009  0.000067
  6N   1f+2       0.000001  0.000005 -0.000019 -0.000007 -0.000003  0.000000
  6N   1f-2      -0.000004 -0.000002 -0.000024 -0.000013  0.000008  0.000005
  6N   1f+3      -0.000023  0.000007  0.000012  0.000011  0.000036 -0.000028
  6N   1f-3      -0.000018  0.000001 -0.000632 -0.000324  0.000036  0.000161
  7H   1s         0.000020 -0.000066  0.000262 -0.000048  0.000249 -0.000621
  7H   2s         0.000674  0.001375 -0.000545 -0.000440  0.000184 -0.002414
  7H   3s        -0.000067  0.001941 -0.002491  0.001269  0.000944 -0.004469
  7H   1pz        0.000040  0.000049 -0.000020 -0.000018  0.000006 -0.000279
  7H   1px       -0.000259 -0.000299  0.000033  0.000063  0.000148  0.000366
  7H   1py        0.000147  0.000193 -0.000150 -0.000110  0.000168 -0.002168
  8H   1s         0.000066 -0.000016  0.000005 -0.000009 -0.000140 -0.000010
  8H   2s        -0.000131  0.000434  0.000081 -0.000082 -0.001429 -0.000365
  8H   3s         0.000494  0.000570  0.000398 -0.000017  0.001126  0.000240
  8H   1pz        0.000029  0.000006 -0.000001 -0.000000 -0.000015 -0.000005
  8H   1px       -0.000307  0.000008  0.000028 -0.000023 -0.000194 -0.000031
  8H   1py        0.000021  0.000046  0.000007 -0.000013 -0.000196 -0.000056
  9H   1s         0.000049 -0.000042 -0.000022  0.000007  0.000036  0.000040
  9H   2s         0.000344  0.000103  0.000106 -0.000034  0.000842  0.000100
  9H   3s         0.001148  0.000982  0.000193 -0.000080 -0.000023 -0.000279
  9H   1pz        0.000071 -0.000004 -0.000010  0.000007 -0.000069 -0.000027
  9H   1px       -0.000042  0.000094  0.000000 -0.000008 -0.000052 -0.000008
  9H   1py        0.000051  0.000042  0.000012 -0.000006 -0.000175 -0.000038
 10H   1s         0.000049 -0.000038 -0.000022  0.000006  0.000027  0.000037
 10H   2s         0.000351  0.000099  0.000111 -0.000039  0.000769  0.000104
 10H   3s         0.001107  0.000988  0.000187 -0.000075  0.000019 -0.000285
 10H   1pz       -0.000048 -0.000005  0.000013 -0.000008  0.000017  0.000016
 10H   1px       -0.000053  0.000092  0.000001 -0.000010 -0.000055 -0.000004
 10H   1py        0.000065  0.000042  0.000009 -0.000004 -0.000178 -0.000045
                      6         7         8         9        10        11   
                 -10.22260  -1.13808  -1.11158  -1.02400  -0.87491  -0.74235
                   2.00000   2.00000   2.00000   2.00000   2.00000   2.00000
                  --------  --------  --------  --------  --------  --------
  0C   1s        -0.000044 -0.019149 -0.006652 -0.004855  0.074107  0.007028
  0C   2s        -0.000059 -0.039872 -0.013605 -0.009983  0.156073  0.014860
  0C   3s        -0.000376  0.058257  0.023062  0.015816 -0.245106 -0.022189
  0C   4s         0.004547  0.035521  0.000921  0.004950 -0.224459 -0.023652
  0C   5s        -0.002951 -0.005817  0.003852  0.004938 -0.062873 -0.014940
  0C   1pz       -0.000012 -0.000224  0.002526  0.001499  0.000350 -0.008721
  0C   1px        0.000098  0.032669 -0.020595  0.001944 -0.088733  0.111646
  0C   1py       -0.000028  0.023564  0.006052  0.014819 -0.066332  0.010960
  0C   2pz        0.000725  0.000093  0.000638 -0.000757 -0.001817 -0.004351
  0C   2px       -0.006096  0.012036 -0.009581  0.016467 -0.022974  0.055504
  0C   2py        0.001557  0.010211 -0.001879  0.006365 -0.033977  0.005282
  0C   3pz       -0.000080  0.000228  0.000203 -0.000237 -0.001459 -0.001196
  0C   3px        0.003178 -0.004320  0.002227  0.000787 -0.002253  0.013672
  0C   3py        0.001797 -0.001394  0.003530 -0.001458 -0.014602  0.000275
  0C   1dz2      -0.000039 -0.003904 -0.000567 -0.000485  0.011749 -0.000288
  0C   1dxz      -0.000019 -0.000342 -0.000267  0.000007  0.001345  0.000852
  0C   1dyz       0.000009  0.000090  0.000153  0.000281 -0.000849 -0.000629
  0C   1dx2y2     0.000048  0.002607  0.000545 -0.001345 -0.006047 -0.000119
  0C   1dxy      -0.000072  0.004354 -0.001108 -0.000333 -0.009015  0.007649
  0C   2dz2      -0.000107 -0.003846  0.001537 -0.000112  0.009331  0.001334
  0C   2dxz      -0.000303 -0.000420  0.000243  0.000688  0.002519  0.000349
  0C   2dyz       0.000234  0.000264 -0.000084 -0.000012 -0.001566 -0.000262
  0C   2dx2y2     0.000089  0.001982 -0.001221 -0.002858 -0.006155 -0.000609
  0C   2dxy      -0.002406  0.003106 -0.000950  0.003873  0.004338  0.000712
  0C   1f0       -0.000050  0.000011 -0.000235 -0.000066  0.000058  0.000406
  0C   1f+1       0.000192 -0.001244  0.001006 -0.000489  0.001905 -0.002385
  0C   1f-1      -0.000019 -0.000919 -0.000034 -0.000598  0.001643 -0.000457
  0C   1f+2       0.000019  0.000056  0.000116 -0.000341 -0.000474 -0.000621
  0C   1f-2      -0.000030 -0.000176  0.000083 -0.000141  0.000666  0.000069
  0C   1f+3       0.000023  0.000186  0.001131 -0.001180 -0.000196 -0.002037
  0C   1f-3       0.000054 -0.002685  0.001051  0.000202  0.007226 -0.000219
  1C   1s        -0.000031 -0.012035 -0.055008 -0.028567  0.012320  0.042761
  1C   2s        -0.000164 -0.025066 -0.115044 -0.059872  0.025896  0.091196
  1C   3s         0.001644  0.040230  0.185670  0.092354 -0.042542 -0.155081
  1C   4s        -0.006188  0.027270  0.135369  0.087077 -0.027723 -0.155374
  1C   5s         0.006134  0.002735  0.009765  0.008358  0.016591 -0.011928
  1C   1pz       -0.000021  0.000722  0.007662  0.014653  0.011622  0.012050
  1C   1px        0.000094 -0.001046 -0.063945  0.045339 -0.058469  0.015481
  1C   1py       -0.000112  0.005555  0.017116  0.166352  0.056730  0.119511
  1C   2pz        0.000585 -0.000037  0.001896  0.003710  0.004782  0.008014
  1C   2px       -0.004985  0.000091 -0.021091  0.024549 -0.026926 -0.005443
  1C   2py        0.001250 -0.000281  0.000075  0.052517  0.021152  0.066997
  1C   3pz       -0.000061  0.000180  0.000315  0.000006 -0.001164  0.000082
  1C   3px       -0.003787 -0.002809 -0.004605  0.002927  0.011812  0.005181
  1C   3py       -0.003493 -0.000608 -0.000847  0.002394 -0.000984  0.004793
  1C   1dz2      -0.000088 -0.002267 -0.011311 -0.005256  0.000770  0.005195
  1C   1dxz      -0.000031 -0.000224 -0.000635 -0.000245  0.000792  0.000371
  1C   1dyz       0.000006  0.000444  0.002210  0.003650  0.000283 -0.000545
  1C   1dx2y2     0.000140 -0.000549 -0.004824 -0.016643 -0.005282 -0.000651
  1C   1dxy      -0.000052  0.000754  0.006378 -0.007839  0.001751 -0.004525
  1C   2dz2       0.001167 -0.001825 -0.009864 -0.007553  0.000144  0.004952
  1C   2dxz       0.000561 -0.000355 -0.001335 -0.001599  0.000340  0.000617
  1C   2dyz      -0.000462  0.000216  0.001892  0.002292  0.000415 -0.002251
  1C   2dx2y2    -0.000412  0.001070 -0.000624 -0.002509 -0.003783  0.007597
  1C   2dxy       0.003000  0.000246  0.001488 -0.005519 -0.000145  0.004455
  1C   1f0       -0.000010 -0.000027 -0.000478 -0.000826 -0.000573 -0.000597
  1C   1f+1      -0.000003  0.000014  0.001400 -0.000590  0.001086 -0.000445
  1C   1f-1      -0.000038 -0.000079 -0.000567 -0.003334 -0.001132 -0.002422
  1C   1f+2       0.000025 -0.000309 -0.001278 -0.001551  0.000046  0.000278
  1C   1f-2       0.000017  0.000035  0.000375  0.000045 -0.000134 -0.000348
  1C   1f+3       0.000204 -0.000814 -0.001619 -0.001039  0.001396  0.002453
  1C   1f-3      -0.000063  0.001463  0.008478  0.005245  0.000399 -0.003629
  2N   1s        -0.000001 -0.083894  0.013271  0.001474  0.035397 -0.016651
  2N   2s         0.000015 -0.188357  0.029873  0.003291  0.079979 -0.037974
  2N   3s        -0.000387  0.290636 -0.047602 -0.004491 -0.121160  0.061621
  2N   4s         0.002782  0.298439 -0.041524 -0.010778 -0.175804  0.076807
  2N   5s        -0.001336  0.024183 -0.009209  0.002869 -0.046884  0.031995
  2N   1pz        0.000007 -0.001957  0.000947  0.001052 -0.005534  0.000056
  2N   1px        0.000023  0.103844 -0.029315 -0.022345  0.235857 -0.067244
  2N   1py        0.000075  0.063625 -0.014530 -0.008162  0.135544 -0.051922
  2N   2pz        0.000006 -0.001103  0.000660  0.000756 -0.004072  0.000057
  2N   2px       -0.001467  0.058791 -0.021696 -0.012195  0.165030 -0.051423
  2N   2py       -0.001090  0.036062 -0.011115 -0.002854  0.093126 -0.039556
  2N   3pz        0.000149  0.000429  0.000041 -0.000175  0.000068 -0.000193
  2N   3px       -0.000922 -0.020273 -0.000798  0.007264  0.002734 -0.001730
  2N   3py        0.000590 -0.011995 -0.000268  0.004152  0.002690 -0.003035
  2N   1dz2      -0.000006 -0.008373  0.001362  0.000226  0.000239 -0.000255
  2N   1dxz      -0.000002 -0.000499  0.000043 -0.000040  0.000081  0.000039
  2N   1dyz       0.000001 -0.000181  0.000029  0.000008 -0.000014  0.000017
  2N   1dx2y2     0.000004  0.006659 -0.000920  0.000034 -0.000344 -0.000160
  2N   1dxy      -0.000003  0.012139 -0.002182 -0.000628  0.000080  0.000570
  2N   2dz2      -0.000158 -0.013231  0.001495  0.000781  0.003582  0.000160
  2N   2dxz       0.000017 -0.000877  0.000079 -0.000140  0.000415  0.000068
  2N   2dyz      -0.000013 -0.000123  0.000062  0.000100  0.000262  0.000018
  2N   2dx2y2     0.000086  0.010008 -0.001302 -0.000275 -0.004663 -0.000439
  2N   2dxy       0.000401  0.018002 -0.002339 -0.002476 -0.004884 -0.000001
  2N   1f0       -0.000003  0.000111 -0.000035 -0.000072  0.000230 -0.000024
  2N   1f+1       0.000016 -0.002304  0.000763  0.000453 -0.003977  0.000918
  2N   1f-1       0.000002 -0.001397  0.000471  0.000100 -0.002289  0.000629
  2N   1f+2      -0.000006 -0.000131  0.000048  0.000059 -0.000249 -0.000024
  2N   1f-2       0.000002 -0.000085  0.000004  0.000021 -0.000190  0.000062
  2N   1f+3      -0.000011  0.000184 -0.000163  0.000324 -0.000083 -0.000307
  2N   1f-3       0.000054 -0.003048  0.000910  0.000418 -0.005271  0.001662
  3O   1s         0.000013 -0.010099 -0.075107  0.055384 -0.004181  0.004235
  3O   2s         0.000139 -0.023647 -0.176072  0.130206 -0.009891  0.010030
  3O   3s        -0.001208  0.033457  0.250682 -0.186477  0.014811 -0.014830
  3O   4s         0.001478  0.046522  0.345487 -0.267690  0.019718 -0.023472
  3O   5s        -0.005479  0.011620  0.102880 -0.097008  0.006957 -0.021317
[...]
  3O   3py       -0.081920
  3O   1dz2      -0.026038
  3O   1dxz      -0.006955
  3O   1dyz       0.000901
  3O   1dx2y2     0.035684
  3O   1dxy       0.002570
  3O   2dz2       0.193920
  3O   2dxz       0.044839
  3O   2dyz      -0.011272
  3O   2dx2y2    -0.209756
  3O   2dxy      -0.038503
  3O   1f0        0.007199
  3O   1f+1      -0.001301
  3O   1f-1       0.023608
  3O   1f+2      -0.005858
  3O   1f-2       0.008125
  3O   1f+3      -0.016310
  3O   1f-3       0.058481
  4O   1s         0.309427
  4O   2s        -0.385550
  4O   3s         0.429654
  4O   4s        -0.652068
  4O   5s         0.104213
  4O   1pz       -0.004457
  4O   1px        0.009034
  4O   1py       -0.033062
  4O   2pz        0.028145
  4O   2px       -0.078120
  4O   2py        0.190377
  4O   3pz        0.004974
  4O   3px       -0.087718
  4O   3py       -0.030376
  4O   1dz2      -0.007041
  4O   1dxz      -0.001616
  4O   1dyz       0.002474
  4O   1dx2y2    -0.003414
  4O   1dxy      -0.007282
  4O   2dz2       0.033009
  4O   2dxz       0.006606
  4O   2dyz      -0.014885
  4O   2dx2y2     0.038570
  4O   2dxy       0.042692
  4O   1f0       -0.001602
  4O   1f+1      -0.002617
  4O   1f-1      -0.007595
  4O   1f+2      -0.003208
  4O   1f-2       0.000108
  4O   1f+3      -0.001656
  4O   1f-3       0.008935
  5C   1s         0.018502
  5C   2s        -0.034742
  5C   3s        -0.187444
  5C   4s         0.818334
  5C   5s        -0.386173
  5C   1pz        0.003304
  5C   1px       -0.022315
  5C   1py        0.012583
  5C   2pz       -0.080668
  5C   2px        0.532047
  5C   2py       -0.295819
  5C   3pz       -0.009155
  5C   3px       -0.004510
  5C   3py       -0.057016
  5C   1dz2      -0.032728
  5C   1dxz      -0.012892
  5C   1dyz       0.006764
  5C   1dx2y2     0.032556
  5C   1dxy      -0.042541
  5C   2dz2      -0.163776
  5C   2dxz      -0.064582
  5C   2dyz       0.037283
  5C   2dx2y2     0.146219
  5C   2dxy      -0.225635
  5C   1f0        0.021279
  5C   1f+1      -0.057906
  5C   1f-1       0.027286
  5C   1f+2      -0.015522
  5C   1f-2       0.022260
  5C   1f+3      -0.011280
  5C   1f-3       0.079041
  6N   1s        -0.000252
  6N   2s         0.000448
  6N   3s         0.004321
  6N   4s        -0.019819
  6N   5s        -0.226655
  6N   1pz       -0.000470
  6N   1px        0.001448
  6N   1py       -0.003020
  6N   2pz       -0.000372
  6N   2px        0.010163
  6N   2py        0.005455
  6N   3pz        0.003454
  6N   3px        0.039216
  6N   3py        0.061066
  6N   1dz2       0.001613
  6N   1dxz       0.000962
  6N   1dyz       0.000112
  6N   1dx2y2    -0.005423
  6N   1dxy       0.002012
  6N   2dz2      -0.001637
  6N   2dxz      -0.001182
  6N   2dyz       0.000753
  6N   2dx2y2     0.002160
  6N   2dxy      -0.006942
  6N   1f0        0.000215
  6N   1f+1       0.000203
  6N   1f-1       0.000910
  6N   1f+2       0.000222
  6N   1f-2      -0.000515
  6N   1f+3      -0.002531
  6N   1f-3      -0.002198
  7H   1s        -0.001975
  7H   2s         0.095317
  7H   3s         0.048218
  7H   1pz        0.005691
  7H   1px       -0.038037
  7H   1py        0.019758
  8H   1s         0.007212
  8H   2s        -0.019102
  8H   3s         0.053919
  8H   1pz        0.002962
  8H   1px       -0.035400
  8H   1py       -0.000408
  9H   1s         0.001364
  9H   2s         0.034799
  9H   3s         0.118589
  9H   1pz        0.010713
  9H   1px        0.000986
  9H   1py        0.005645
 10H   1s         0.001444
 10H   2s         0.035123
 10H   3s         0.114540
 10H   1pz       -0.009030
 10H   1px       -0.000836
 10H   1py        0.008012



                    ********************************
                    * MULLIKEN POPULATION ANALYSIS *
                    ********************************

-----------------------
MULLIKEN ATOMIC CHARGES
-----------------------
   0 C :   -0.213154
   1 C :    0.368978
   2 N :    0.225383
   3 O :   -0.276603
   4 O :   -0.420442
   5 C :   -0.179557
   6 N :   -0.126792
   7 H :    0.202607
   8 H :    0.146259
   9 H :    0.136632
  10 H :    0.136687
Sum of atomic charges:   -0.0000000

--------------------------------
MULLIKEN REDUCED ORBITAL CHARGES
--------------------------------
  0 C s       :     3.207539  s :     3.207539
      pz      :     1.253406  p :     2.921267
      px      :     0.729306
      py      :     0.938554
      dz2     :     0.007913  d :     0.074883
      dxz     :     0.016272
      dyz     :     0.006537
      dx2y2   :     0.023116
      dxy     :     0.021046
      f0      :     0.001709  f :     0.009464
      f+1     :     0.001263
      f-1     :     0.000976
      f+2     :     0.000351
      f-2     :     0.000915
      f+3     :     0.002024
      f-3     :     0.002227
  1 C s       :     3.036481  s :     3.036481
      pz      :     0.782794  p :     2.308823
      px      :     0.783425
      py      :     0.742605
      dz2     :     0.011998  d :     0.260725
      dxz     :     0.039024
      dyz     :     0.062723
      dx2y2   :     0.049843
      dxy     :     0.097138
      f0      :     0.002877  f :     0.024992
      f+1     :     0.001169
      f-1     :     0.001918
      f+2     :     0.002790
      f-2     :     0.002967
      f+3     :     0.008890
      f-3     :     0.004381
  2 N s       :     3.292968  s :     3.292968
      pz      :     1.194277  p :     3.362653
      px      :     1.058484
      py      :     1.109891
      dz2     :     0.004136  d :     0.109695
      dxz     :     0.047741
      dyz     :     0.016152
      dx2y2   :     0.025442
      dxy     :     0.016225
      f0      :     0.001391  f :     0.009301
      f+1     :     0.000790
      f-1     :     0.000440
      f+2     :     0.000488
      f-2     :     0.001575
      f+3     :     0.003168
      f-3     :     0.001449
  3 O s       :     3.760387  s :     3.760387
      pz      :     1.715069  p :     4.474854
      px      :     1.184834
      py      :     1.574951
      dz2     :     0.004446  d :     0.039275
      dxz     :     0.006566
      dyz     :     0.004255
      dx2y2   :     0.008066
      dxy     :     0.015942
      f0      :     0.000281  f :     0.002087
      f+1     :     0.000376
      f-1     :     0.000169
      f+2     :     0.000088
      f-2     :     0.000268
      f+3     :     0.000425
      f-3     :     0.000480
  4 O s       :     3.802371  s :     3.802371
      pz      :     1.475483  p :     4.587584
      px      :     1.776715
      py      :     1.335386
      dz2     :     0.002758  d :     0.028704
      dxz     :     0.000263
      dyz     :     0.009996
      dx2y2   :     0.008006
      dxy     :     0.007682
      f0      :     0.000183  f :     0.001783
      f+1     :     0.000023
      f-1     :     0.000214
      f+2     :     0.000411
      f-2     :     0.000033
      f+3     :     0.000519
      f-3     :     0.000399
  5 C s       :     3.263418  s :     3.263418
      pz      :     1.079229  p :     2.830256
      px      :     0.738100
      py      :     1.012927
      dz2     :     0.008020  d :     0.078165
      dxz     :     0.019931
      dyz     :     0.013847
      dx2y2   :     0.014389
      dxy     :     0.021978
      f0      :     0.000960  f :     0.007718
      f+1     :     0.000628
      f-1     :     0.001273
      f+2     :     0.000748
      f-2     :     0.000770
      f+3     :     0.001950
      f-3     :     0.001389
  6 N s       :     3.899806  s :     3.899806
      pz      :     1.250938  p :     3.156563
      px      :     1.014781
      py      :     0.890843
      dz2     :     0.004841  d :     0.065515
      dxz     :     0.015865
      dyz     :     0.005795
      dx2y2   :     0.022479
      dxy     :     0.016534
      f0      :     0.000787  f :     0.004908
      f+1     :     0.000402
      f-1     :     0.000261
      f+2     :     0.000231
      f-2     :     0.000809
      f+3     :     0.001848
      f-3     :     0.000568
  7 H s       :     0.773729  s :     0.773729
      pz      :     0.006581  p :     0.023664
      px      :     0.002361
      py      :     0.014722
  8 H s       :     0.833346  s :     0.833346
      pz      :     0.004263  p :     0.020395
      px      :     0.007701
      py      :     0.008431
  9 H s       :     0.843092  s :     0.843092
      pz      :     0.011242  p :     0.020276
      px      :     0.002937
      py      :     0.006097
 10 H s       :     0.843021  s :     0.843021
      pz      :     0.008655  p :     0.020292
      px      :     0.003371
      py      :     0.008267


                     *******************************
                     * LOEWDIN POPULATION ANALYSIS *
                     *******************************

----------------------
LOEWDIN ATOMIC CHARGES
----------------------
   0 C :   -0.257950
   1 C :   -0.515931
   2 N :    0.226772
   3 O :    0.237007
   4 O :    0.043711
   5 C :   -0.304056
   6 N :    0.050413
   7 H :    0.167114
   8 H :    0.120302
   9 H :    0.116314
  10 H :    0.116304

-------------------------------
LOEWDIN REDUCED ORBITAL CHARGES
-------------------------------
  0 C s       :     2.789336  s :     2.789336
      pz      :     1.127923  p :     3.036551
      px      :     0.914182
      py      :     0.994446
      dz2     :     0.032125  d :     0.373652
      dxz     :     0.063448
      dyz     :     0.020723
      dx2y2   :     0.135948
      dxy     :     0.121408
      f0      :     0.005682  f :     0.058411
      f+1     :     0.007291
      f-1     :     0.004366
      f+2     :     0.002545
      f-2     :     0.008566
      f+3     :     0.017462
      f-3     :     0.012499
  1 C s       :     2.742881  s :     2.742881
      pz      :     0.767329  p :     2.658233
      px      :     0.910380
      py      :     0.980524
      dz2     :     0.068911  d :     0.962564
      dxz     :     0.113501
      dyz     :     0.188467
      dx2y2   :     0.225867
      dxy     :     0.365817
      f0      :     0.009285  f :     0.152253
      f+1     :     0.007372
      f-1     :     0.013027
      f+2     :     0.020502
      f-2     :     0.018731
      f+3     :     0.057037
      f-3     :     0.026300
  2 N s       :     2.949919  s :     2.949919
      pz      :     1.068529  p :     3.401276
      px      :     1.226548
      py      :     1.106199
      dz2     :     0.024821  d :     0.395981
      dxz     :     0.147455
      dyz     :     0.052085
      dx2y2   :     0.092331
      dxy     :     0.079289
      f0      :     0.002475  f :     0.026052
      f+1     :     0.003927
      f-1     :     0.001662
      f+2     :     0.000879
      f-2     :     0.003065
      f+3     :     0.005525
      f-3     :     0.008519
  3 O s       :     3.254098  s :     3.254098
      pz      :     1.579586  p :     4.394026
      px      :     1.259015
      py      :     1.555425
      dz2     :     0.011218  d :     0.108154
      dxz     :     0.019035
      dyz     :     0.007060
      dx2y2   :     0.029040
      dxy     :     0.041800
      f0      :     0.000588  f :     0.006715
      f+1     :     0.000893
      f-1     :     0.000333
      f+2     :     0.000224
      f-2     :     0.001001
      f+3     :     0.002152
      f-3     :     0.001525
  4 O s       :     3.400040  s :     3.400040
      pz      :     1.384672  p :     4.484748
      px      :     1.614131
      py      :     1.485944
      dz2     :     0.007964  d :     0.065412
      dxz     :     0.000440
      dyz     :     0.015278
      dx2y2   :     0.024350
      dxy     :     0.017379
      f0      :     0.000491  f :     0.006089
      f+1     :     0.000091
      f-1     :     0.000984
      f+2     :     0.000926
      f-2     :     0.000107
      f+3     :     0.001666
      f-3     :     0.001825
  5 C s       :     2.870879  s :     2.870879
      pz      :     1.111756  p :     3.018396
      px      :     0.840925
      py      :     1.065715
      dz2     :     0.051942  d :     0.361486
      dxz     :     0.063123
      dyz     :     0.067902
      dx2y2   :     0.060640
      dxy     :     0.117878
      f0      :     0.005446  f :     0.053295
      f+1     :     0.007133
      f-1     :     0.003959
      f+2     :     0.007540
      f-2     :     0.005141
      f+3     :     0.012697
      f-3     :     0.011379
  6 N s       :     3.368404  s :     3.368404
      pz      :     1.194638  p :     3.380260
      px      :     1.216605
      py      :     0.969018
      dz2     :     0.017747  d :     0.171854
      dxz     :     0.038819
      dyz     :     0.014092
      dx2y2   :     0.049168
      dxy     :     0.052028
      f0      :     0.003691  f :     0.029069
      f+1     :     0.003116
      f-1     :     0.001510
      f+2     :     0.001335
      f-2     :     0.004652
      f+3     :     0.008363
      f-3     :     0.006403
  7 H s       :     0.766763  s :     0.766763
      pz      :     0.019322  p :     0.066124
      px      :     0.007530
      py      :     0.039271
  8 H s       :     0.819796  s :     0.819796
      pz      :     0.013088  p :     0.059902
      px      :     0.020839
      py      :     0.025974
  9 H s       :     0.823027  s :     0.823027
      pz      :     0.033798  p :     0.060659
      px      :     0.008686
      py      :     0.018175
 10 H s       :     0.822952  s :     0.822952
      pz      :     0.026488  p :     0.060744
      px      :     0.009657
      py      :     0.024599


                      *****************************
                      * MAYER POPULATION ANALYSIS *
                      *****************************

  NA   - Mulliken gross atomic population
  ZA   - Total nuclear charge
  QA   - Mulliken gross atomic charge
  VA   - Mayer's total valence
  BVA  - Mayer's bonded valence
  FA   - Mayer's free valence

  ATOM       NA         ZA         QA         VA         BVA        FA
  0 C      6.2132     6.0000    -0.2132     3.6614     3.6614     0.0000
  1 C      5.6310     6.0000     0.3690     4.2888     4.2888     0.0000
  2 N      6.7746     7.0000     0.2254     3.6496     3.6496    -0.0000
  3 O      8.2766     8.0000    -0.2766     2.0773     2.0773     0.0000
  4 O      8.4204     8.0000    -0.4204     2.0887     2.0887     0.0000
  5 C      6.1796     6.0000    -0.1796     3.8159     3.8159    -0.0000
  6 N      7.1268     7.0000    -0.1268     2.6572     2.6572    -0.0000
  7 H      0.7974     1.0000     0.2026     0.9660     0.9660     0.0000
  8 H      0.8537     1.0000     0.1463     0.9607     0.9607     0.0000
  9 H      0.8634     1.0000     0.1366     0.9668     0.9668    -0.0000
 10 H      0.8633     1.0000     0.1367     0.9675     0.9675    -0.0000

  Mayer bond orders larger than 0.100000
B(  0-C ,  1-C ) :   1.1142 B(  0-C ,  2-N ) :   1.3529 B(  0-C ,  6-N ) :   0.2638 
B(  0-C ,  7-H ) :   0.9185 B(  1-C ,  3-O ) :   1.1579 B(  1-C ,  4-O ) :   1.9470 
B(  2-N ,  6-N ) :   2.2564 B(  3-O ,  5-C ) :   0.8785 B(  5-C ,  8-H ) :   0.9627 
B(  5-C ,  9-H ) :   0.9692 B(  5-C , 10-H ) :   0.9691 

-------
TIMINGS
-------

Total SCF time: 0 days 0 hours 1 min 30 sec 

Total time                  ....      90.608 sec
Sum of individual times     ....      90.210 sec  ( 99.6%)

Fock matrix formation       ....      87.896 sec  ( 97.0%)
  Split-RI-J                ....       5.044 sec  (  5.7% of F)
  Chain of spheres X        ....      64.813 sec  ( 73.7% of F)
  XC integration            ....      11.005 sec  ( 12.5% of F)
    Basis function eval.    ....       3.323 sec  ( 30.2% of XC)
    Density eval.           ....       2.889 sec  ( 26.3% of XC)
    XC-Functional eval.     ....       0.418 sec  (  3.8% of XC)
    XC-Potential eval.      ....       3.781 sec  ( 34.4% of XC)
Diagonalization             ....       0.063 sec  (  0.1%)
Density matrix formation    ....       0.010 sec  (  0.0%)
Population analysis         ....       0.034 sec  (  0.0%)
Initial guess               ....       0.414 sec  (  0.5%)
Orbital Transformation      ....       0.000 sec  (  0.0%)
Orbital Orthonormalization  ....       0.000 sec  (  0.0%)
DIIS solution               ....       0.021 sec  (  0.0%)
SOSCF solution              ....       0.054 sec  (  0.1%)
Grid generation             ....       1.718 sec  (  1.9%)

Maximum memory used throughout the entire SCF-calculation: 130.2 MB


-------------------------------------------------------------------------------
                          DFT DISPERSION CORRECTION                            
                                                                               
                              DFTD3 V3.1  Rev 1                                
                          USING Becke-Johnson damping                          
-------------------------------------------------------------------------------
The B3LYP functional is recognized
Active option DFTDOPT                   ...         4   

molecular C6(AA) [au] = 1380.306473 


            DFT-D V3
 parameters
 s6 scaling factor         :     1.0000 
 a1 scaling factor         :     0.3981 
 s8 scaling factor         :     1.9889 
 a2 scaling factor         :     4.4211 
 ad hoc parameters k1-k3   :    16.0000     1.3333    -4.0000 

 Edisp/kcal,au: -8.553860886306  -0.013631443552 
 E6   /kcal   :  -4.075941388 
 E8   /kcal   :  -4.477919498 
 % E8         :  52.349688145 

-------------------------   ----------------
Dispersion correction           -0.013631444
-------------------------   ----------------


-------------------------   --------------------
FINAL SINGLE POINT ENERGY      -376.613028209924
-------------------------   --------------------


                            ***************************************
                            *     ORCA property calculations      *
                            ***************************************

                                    ---------------------
                                    Active property flags
                                    ---------------------
   (+) Dipole Moment


------------------------------------------------------------------------------
                       ORCA ELECTRIC PROPERTIES CALCULATION
------------------------------------------------------------------------------

Dipole Moment Calculation                       ... on
Quadrupole Moment Calculation                   ... off
Polarizability Calculation                      ... off
GBWName                                         ... diazo_c01_sp.gbw
Electron density                                ... diazo_c01_sp.scfp
The origin for moment calculation is the CENTER OF MASS  = ( 0.198262,  0.196355 -0.104716)

-------------
DIPOLE MOMENT
-------------
                                X             Y             Z
Electronic contribution:      7.45354       0.50224      -0.60801
Nuclear contribution   :     -7.87421      -1.78663       0.50008
                        -----------------------------------------
Total Dipole Moment    :     -0.42067      -1.28439      -0.10793
                        -----------------------------------------
Magnitude (a.u.)       :      1.35582
Magnitude (Debye)      :      3.44623



--------------------
Rotational spectrum 
--------------------
 
Rotational constants in cm-1:     0.338508     0.048527     0.042791 
Rotational constants in MHz : 10148.200276  1454.816155  1282.844874 

 Dipole components along the rotational axes: 
x,y,z [a.u.] :    -0.515548    -1.253981     0.000561 
x,y,z [Debye]:    -1.310419    -3.187366     0.001426 

 

Timings for individual modules:

Sum of individual times         ...       91.145 sec (=   1.519 min)
GTO integral calculation        ...        0.403 sec (=   0.007 min)   0.4 %
SCF iterations                  ...       90.742 sec (=   1.512 min)  99.6 %
                             ****ORCA TERMINATED NORMALLY****
TOTAL RUN TIME: 0 days 0 hours 1 minutes 31 seconds 564 msec
