
                                 *****************
                                 * O   R   C   A *
                                 *****************

                                            #,                                       
                                            ###                                      
                                            ####                                     
                                            #####                                    
                                            ######                                   
                                           ########,                                 
                                     ,,################,,,,,                         
                               ,,#################################,,                 
                          ,,##########################################,,             
                       ,#########################################, ''#####,          
                    ,#############################################,,   '####,        
                  ,##################################################,,,,####,       
                ,###########''''           ''''###############################       
              ,#####''   ,,,,##########,,,,          '''####'''          '####       
            ,##' ,,,,###########################,,,                        '##       
           ' ,,###''''                  '''############,,,                           
         ,,##''                                '''############,,,,        ,,,,,,###''
      ,#''                                            '''#######################'''  
     '                                                          ''''####''''         
             ,#######,   #######,   ,#######,      ##                                
            ,#'     '#,  ##    ##  ,#'     '#,    #''#        ######   ,####,        
            ##       ##  ##   ,#'  ##            #'  '#       #        #'  '#        
            ##       ##  #######   ##           ,######,      #####,   #    #        
            '#,     ,#'  ##    ##  '#,     ,#' ,#      #,         ##   #,  ,#        
             '#######'   ##     ##  '#######'  #'      '#     #####' # '####'        



                  #######################################################
                  #                        -***-                        #
                  #          Department of theory and spectroscopy      #
                  #    Directorship and core code : Frank Neese         #
                  #        Max Planck Institute fuer Kohlenforschung    #
                  #                Kaiser Wilhelm Platz 1               #
                  #                 D-45470 Muelheim/Ruhr               #
                  #                      Germany                        #
                  #                                                     #
                  #                  All rights reserved                #
                  #                        -***-                        #
                  #######################################################


                         Program Version 5.0.3 -  RELEASE  -


 With contributions from (in alphabetic order):
   Daniel Aravena         : Magnetic Suceptibility
   Michael Atanasov       : Ab Initio Ligand Field Theory (pilot matlab implementation)
   Alexander A. Auer      : GIAO ZORA, VPT2 properties, NMR spectrum
   Ute Becker             : Parallelization
   Giovanni Bistoni       : ED, misc. LED, open-shell LED, HFLD
   Martin Brehm           : Molecular dynamics
   Dmytro Bykov           : SCF Hessian
   Vijay G. Chilkuri      : MRCI spin determinant printing, contributions to CSF-ICE
   Dipayan Datta          : RHF DLPNO-CCSD density
   Achintya Kumar Dutta   : EOM-CC, STEOM-CC
   Dmitry Ganyushin       : Spin-Orbit,Spin-Spin,Magnetic field MRCI
   Miquel Garcia          : C-PCM and meta-GGA Hessian, CC/C-PCM, Gaussian charge scheme
   Yang Guo               : DLPNO-NEVPT2, F12-NEVPT2, CIM, IAO-localization
   Andreas Hansen         : Spin unrestricted coupled pair/coupled cluster methods
   Benjamin Helmich-Paris : MC-RPA, TRAH-SCF, COSX integrals
   Lee Huntington         : MR-EOM, pCC
   Robert Izsak           : Overlap fitted RIJCOSX, COSX-SCS-MP3, EOM
   Marcus Kettner         : VPT2
   Christian Kollmar      : KDIIS, OOCD, Brueckner-CCSD(T), CCSD density, CASPT2, CASPT2-K
   Simone Kossmann        : Meta GGA functionals, TD-DFT gradient, OOMP2, MP2 Hessian
   Martin Krupicka        : Initial AUTO-CI
   Lucas Lang             : DCDCAS
   Marvin Lechner         : AUTO-CI (C++ implementation), FIC-MRCC
   Dagmar Lenk            : GEPOL surface, SMD
   Dimitrios Liakos       : Extrapolation schemes; Compound Job, initial MDCI parallelization
   Dimitrios Manganas     : Further ROCIS development; embedding schemes
   Dimitrios Pantazis     : SARC Basis sets
   Anastasios Papadopoulos: AUTO-CI, single reference methods and gradients
   Taras Petrenko         : DFT Hessian,TD-DFT gradient, ASA, ECA, R-Raman, ABS, FL, XAS/XES, NRVS
   Peter Pinski           : DLPNO-MP2, DLPNO-MP2 Gradient
   Christoph Reimann      : Effective Core Potentials
   Marius Retegan         : Local ZFS, SOC
   Christoph Riplinger    : Optimizer, TS searches, QM/MM, DLPNO-CCSD(T), (RO)-DLPNO pert. Triples
   Tobias Risthaus        : Range-separated hybrids, TD-DFT gradient, RPA, STAB
   Michael Roemelt        : Original ROCIS implementation
   Masaaki Saitow         : Open-shell DLPNO-CCSD energy and density
   Barbara Sandhoefer     : DKH picture change effects
   Avijit Sen             : IP-ROCIS
   Kantharuban Sivalingam : CASSCF convergence, NEVPT2, FIC-MRCI
   Bernardo de Souza      : ESD, SOC TD-DFT
   Georgi Stoychev        : AutoAux, RI-MP2 NMR, DLPNO-MP2 response
   Willem Van den Heuvel  : Paramagnetic NMR
   Boris Wezisla          : Elementary symmetry handling
   Frank Wennmohs         : Technical directorship


 We gratefully acknowledge several colleagues who have allowed us to
 interface, adapt or use parts of their codes:
   Stefan Grimme, W. Hujo, H. Kruse, P. Pracht,  : VdW corrections, initial TS optimization,
                  C. Bannwarth, S. Ehlert          DFT functionals, gCP, sTDA/sTD-DF
   Ed Valeev, F. Pavosevic, A. Kumar             : LibInt (2-el integral package), F12 methods
   Garnet Chan, S. Sharma, J. Yang, R. Olivares  : DMRG
   Ulf Ekstrom                                   : XCFun DFT Library
   Mihaly Kallay                                 : mrcc  (arbitrary order and MRCC methods)
   Jiri Pittner, Ondrej Demel                    : Mk-CCSD
   Frank Weinhold                                : gennbo (NPA and NBO analysis)
   Christopher J. Cramer and Donald G. Truhlar   : smd solvation model
   Lars Goerigk                                  : TD-DFT with DH, B97 family of functionals
   V. Asgeirsson, H. Jonsson                     : NEB implementation
   FAccTs GmbH                                   : IRC, NEB, NEB-TS, DLPNO-Multilevel, CI-OPT
                                                   MM, QMMM, 2- and 3-layer-ONIOM, Crystal-QMMM,
                                                   LR-CPCM, SF, NACMEs, symmetry and pop. for TD-DFT,
                                                   nearIR, NL-DFT gradient (VV10), updates on ESD,
                                                   ML-optimized integration grids
   S Lehtola, MJT Oliveira, MAL Marques          : LibXC Library
   Liviu Ungur et al                             : ANISO software


 Your calculation uses the libint2 library for the computation of 2-el integrals
 For citations please refer to: http://libint.valeyev.net

 Your ORCA version has been built with support for libXC version: 5.1.0
 For citations please refer to: https://tddft.org/programs/libxc/

 This ORCA versions uses:
   CBLAS   interface :  Fast vector & matrix operations
   LAPACKE interface :  Fast linear algebra routines
   SCALAPACK package :  Parallel linear algebra routines
   Shared memory     :  Shared parallel matrices


================================================================================

----- Orbital basis set information -----
Your calculation utilizes the basis: 6-31G*
   H-He, Li-Ne : W. J. Hehre, R. Ditchfield and J.A. Pople, J. Chem. Phys. 56, 2257 (1972).
                 Note: He and Ne are unpublished basis sets taken from the Gaussian program.
                 Note: Li and B from J. D. Dill and J. A. Pople, J. Chem. Phys. 62, 2921 (1975).
   Na - Ar     : M. M. Francl, W. J. Pietro, W. J. Hehre, J. S. Binkley, M. S. Gordon, 
                 D. J. DeFrees and J. A. Pople, J. Chem. Phys. 77, 3654 (1982).
   K - Zn      : V. A. Rassolov, J. A. Pople, M. A. Ratner, and T. L. Windus, J. Chem. Phys. 109, 1223 (1998).

----- AuxJ basis set information -----
Your calculation utilizes the auxiliary basis: def2/J
   F. Weigend, Phys. Chem. Chem. Phys. 8, 1057 (2006).

================================================================================
                                        WARNINGS
                       Please study these warnings very carefully!
================================================================================


WARNING: Geometry Optimization
  ===> : Switching off AutoStart
         For restart on a previous wavefunction, please use MOREAD

INFO   : the flag for use of the SHARK integral package has been found!

================================================================================
                                       INPUT FILE
================================================================================
NAME = eda_anti.inp
|  1> ! B3LYP tightscf Freq Opt 6-31G* CPCM(CycloHexane)
|  2> %pal
|  3>     nprocs 1
|  4> end
|  5> %MaxCore 1000
|  6> %freq
|  7>     Temp    298.15
|  8> end
|  9> 
| 10> *xyz 0 1
| 11> C     0.916410  -0.667518  -0.097726
| 12> C    -0.320523   0.087088   0.064176
| 13> N     0.884865  -1.960428  -0.291398
| 14> O    -1.411566  -0.700249  -0.006984
| 15> O    -0.360069   1.288195   0.242681
| 16> C    -2.677559  -0.049867   0.141975
| 17> N     0.845884  -3.079257  -0.459404
| 18> H     1.894938  -0.189320  -0.066503
| 19> H    -2.753811   0.432689   1.128218
| 20> H    -2.819493   0.711219  -0.640200
| 21> C    -3.727777  -1.140623   0.008959
| 22> H    -4.743486  -0.703300   0.111352
| 23> H    -3.582235  -1.905490   0.800905
| 24> H    -3.643216  -1.629003  -0.984890
| 25> *
| 26> 
| 27> 
| 28> 
| 29>                          ****END OF INPUT****
================================================================================

                       *****************************
                       * Geometry Optimization Run *
                       *****************************

Geometry optimization settings:
Update method            Update   .... BFGS
Choice of coordinates    CoordSys .... Z-matrix Internals
Initial Hessian          InHess   .... Almoef's Model

Convergence Tolerances:
Energy Change            TolE     ....  5.0000e-06 Eh
Max. Gradient            TolMAXG  ....  3.0000e-04 Eh/bohr
RMS Gradient             TolRMSG  ....  1.0000e-04 Eh/bohr
Max. Displacement        TolMAXD  ....  4.0000e-03 bohr
RMS Displacement         TolRMSD  ....  2.0000e-03 bohr
Strict Convergence                ....  False
------------------------------------------------------------------------------
                        ORCA OPTIMIZATION COORDINATE SETUP
------------------------------------------------------------------------------

The optimization will be done in new redundant internal coordinates
Making redundant internal coordinates   ...  (new redundants) done
Evaluating the initial hessian          ...  (Almloef) done
Evaluating the coordinates              ...  done
Calculating the B-matrix                .... done
Calculating the G-matrix                .... done
Diagonalizing the G-matrix              .... done
Small eigenvalue found = 1.445e-02
The first mode is                       ....   16
The number of degrees of freedom        ....   36

    -----------------------------------------------------------------
                    Redundant Internal Coordinates


    -----------------------------------------------------------------
         Definition                    Initial Value    Approx d2E/dq
    -----------------------------------------------------------------
      1. B(C   1,C   0)                  1.4580         0.486759   
      2. B(N   2,C   0)                  1.3077         0.757103   
      3. B(O   3,C   1)                  1.3473         0.654529   
      4. B(O   4,C   1)                  1.2149         1.064555   
      5. B(C   5,O   3)                  1.4311         0.481251   
      6. B(N   6,N   2)                  1.1320         1.292899   
      7. B(H   7,C   0)                  1.0896         0.360668   
      8. B(H   8,C   5)                  1.1006         0.346330   
      9. B(H   9,C   5)                  1.1005         0.346420   
     10. B(C  10,C   5)                  1.5200         0.387554   
     11. B(H  11,C  10)                  1.1106         0.333872   
     12. B(H  12,C  10)                  1.1106         0.333882   
     13. B(H  13,C  10)                  1.1106         0.333872   
     14. A(N   2,C   0,H   7)          117.3758         0.362942   
     15. A(C   1,C   0,H   7)          122.1134         0.338934   
     16. A(C   1,C   0,N   2)          120.5106         0.427976   
     17. A(C   0,C   1,O   4)          123.7530         0.455159   
     18. A(C   0,C   1,O   3)          112.2528         0.416988   
     19. A(O   3,C   1,O   4)          123.9942         0.477322   
     20. L(C   0,N   2,N   6,C   1, 1) 179.4101         0.504857   
     21. L(C   0,N   2,N   6,C   1, 2) 179.9186         0.504857   
     22. A(C   1,O   3,C   5)          116.4421         0.413453   
     23. A(H   8,C   5,C  10)          110.1925         0.324199   
     24. A(O   3,C   5,C  10)          106.0213         0.379553   
     25. A(H   8,C   5,H   9)          108.9487         0.287320   
     26. A(O   3,C   5,H   9)          110.7572         0.333995   
     27. A(H   9,C   5,C  10)          110.1793         0.324213   
     28. A(O   3,C   5,H   8)          110.7215         0.333980   
     29. A(H  12,C  10,H  13)          108.9837         0.284048   
     30. A(H  11,C  10,H  13)          108.9841         0.284047   
     31. A(C   5,C  10,H  13)          109.9542         0.322257   
     32. A(H  11,C  10,H  12)          108.9843         0.284048   
     33. A(C   5,C  10,H  12)          109.9543         0.322258   
     34. A(C   5,C  10,H  11)          109.9539         0.322257   
     35. D(O   4,C   1,C   0,N   2)   -179.7705         0.016132   
     36. D(O   4,C   1,C   0,H   7)      0.0594         0.016132   
     37. D(O   3,C   1,C   0,H   7)   -179.9405         0.016132   
     38. D(O   3,C   1,C   0,N   2)      0.2296         0.016132   
     39. D(C   5,O   3,C   1,O   4)     -0.0535         0.031698   
     40. D(C   5,O   3,C   1,C   0)    179.9464         0.031698   
     41. D(C  10,C   5,O   3,C   1)    179.4093         0.018272   
     42. D(H   9,C   5,O   3,C   1)     59.8948         0.018272   
     43. D(H   8,C   5,O   3,C   1)    -61.0798         0.018272   
     44. D(H  12,C  10,C   5,H   8)    -59.6503         0.011948   
     45. D(H  12,C  10,C   5,O   3)     60.2068         0.011948   
     46. D(H  11,C  10,C   5,H   9)    -59.9003         0.011948   
     47. D(H  11,C  10,C   5,H   8)     60.3499         0.011948   
     48. D(H  12,C  10,C   5,H   9)   -179.9006         0.011948   
     49. D(H  11,C  10,C   5,O   3)   -179.7930         0.011948   
     50. D(H  13,C  10,C   5,H   9)     60.0996         0.011948   
     51. D(H  13,C  10,C   5,H   8)   -179.6501         0.011948   
     52. D(H  13,C  10,C   5,O   3)    -59.7930         0.011948   
    -----------------------------------------------------------------

Number of atoms                         .... 14
Number of degrees of freedom            .... 52

         *************************************************************
         *                GEOMETRY OPTIMIZATION CYCLE   1            *
         *************************************************************
---------------------------------
CARTESIAN COORDINATES (ANGSTROEM)
---------------------------------
  C      0.916410   -0.667518   -0.097726
  C     -0.320523    0.087088    0.064176
  N      0.884865   -1.960428   -0.291398
  O     -1.411566   -0.700249   -0.006984
  O     -0.360069    1.288195    0.242681
  C     -2.677559   -0.049867    0.141975
  N      0.845884   -3.079257   -0.459404
  H      1.894938   -0.189320   -0.066503
  H     -2.753811    0.432689    1.128218
  H     -2.819493    0.711219   -0.640200
  C     -3.727777   -1.140623    0.008959
  H     -4.743486   -0.703300    0.111352
  H     -3.582235   -1.905490    0.800905
  H     -3.643216   -1.629003   -0.984890

----------------------------
CARTESIAN COORDINATES (A.U.)
----------------------------
  NO LB      ZA    FRAG     MASS         X           Y           Z
   0 C     6.0000    0    12.011    1.731764   -1.261426   -0.184675
   1 C     6.0000    0    12.011   -0.605701    0.164572    0.121275
   2 N     7.0000    0    14.007    1.672153   -3.704672   -0.550662
   3 O     8.0000    0    15.999   -2.667473   -1.323279   -0.013198
   4 O     8.0000    0    15.999   -0.680432    2.434336    0.458601
   5 C     6.0000    0    12.011   -5.059853   -0.094235    0.268294
   6 N     7.0000    0    14.007    1.598489   -5.818952   -0.868148
   7 H     1.0000    0     1.008    3.580914   -0.357763   -0.125672
   8 H     1.0000    0     1.008   -5.203949    0.817664    2.132023
   9 H     1.0000    0     1.008   -5.328070    1.344009   -1.209803
  10 C     6.0000    0    12.011   -7.044478   -2.155465    0.016930
  11 H     1.0000    0     1.008   -8.963889   -1.329044    0.210425
  12 H     1.0000    0     1.008   -6.769443   -3.600854    1.513491
  13 H     1.0000    0     1.008   -6.884680   -3.078370   -1.861172

--------------------------------
INTERNAL COORDINATES (ANGSTROEM)
--------------------------------
 C      0   0   0     0.000000000000     0.00000000     0.00000000
 C      1   0   0     1.457959436791     0.00000000     0.00000000
 N      1   2   0     1.307715641380   120.51059216     0.00000000
 O      2   1   3     1.347344842651   112.25281653     0.22960442
 O      2   1   3     1.214942775027   123.75297025   180.22952774
 C      4   2   1     1.431056884143   116.44213809   179.94640152
 N      3   1   2     1.132044109405   179.40855533     4.19604605
 H      1   2   3     1.089571131096   122.11336773   179.82989475
 H      6   4   2     1.100613426998   110.72150019   298.92024377
 H      6   4   2     1.100542997968   110.75720043    59.89478675
 C      6   4   2     1.519999919512   106.02133381   179.40928222
 H     11   6   4     1.110585658767   109.95386267   180.20703475
 H     11   6   4     1.110577538207   109.95429177    60.20681459
 H     11   6   4     1.110586071370   109.95423295   300.20702060

---------------------------
INTERNAL COORDINATES (A.U.)
---------------------------
 C      0   0   0     0.000000000000     0.00000000     0.00000000
 C      1   0   0     2.755144049902     0.00000000     0.00000000
 N      1   2   0     2.471224423253   120.51059216     0.00000000
 O      2   1   3     2.546112760561   112.25281653     0.22960442
 O      2   1   3     2.295909113187   123.75297025   180.22952774
 C      4   2   1     2.704305593094   116.44213809   179.94640152
 N      3   1   2     2.139253338294   179.40855533     4.19604605
 H      1   2   3     2.058991041198   122.11336773   179.82989475
 H      6   4   2     2.079857956343   110.72150019   298.92024377
 H      6   4   2     2.079724864765   110.75720043    59.89478675
 C      6   4   2     2.872383571460   106.02133381   179.40928222
 H     11   6   4     2.098702743330   109.95386267   180.20703475
 H     11   6   4     2.098687397695   109.95429177    60.20681459
 H     11   6   4     2.098703523038   109.95423295   300.20702060

---------------------
BASIS SET INFORMATION
---------------------
There are 4 groups of distinct atoms

 Group   1 Type C   : 10s4p1d contracted to 3s2p1d pattern {631/31/1}
 Group   2 Type N   : 10s4p1d contracted to 3s2p1d pattern {631/31/1}
 Group   3 Type O   : 10s4p1d contracted to 3s2p1d pattern {631/31/1}
 Group   4 Type H   : 4s contracted to 2s pattern {31}

Atom   0C    basis set group =>   1
Atom   1C    basis set group =>   1
Atom   2N    basis set group =>   2
Atom   3O    basis set group =>   3
Atom   4O    basis set group =>   3
Atom   5C    basis set group =>   1
Atom   6N    basis set group =>   2
Atom   7H    basis set group =>   4
Atom   8H    basis set group =>   4
Atom   9H    basis set group =>   4
Atom  10C    basis set group =>   1
Atom  11H    basis set group =>   4
Atom  12H    basis set group =>   4
Atom  13H    basis set group =>   4
---------------------------------
AUXILIARY/J BASIS SET INFORMATION
---------------------------------
There are 4 groups of distinct atoms

 Group   1 Type C   : 12s5p4d2f1g contracted to 6s4p3d1f1g pattern {711111/2111/211/2/1}
 Group   2 Type N   : 12s5p4d2f1g contracted to 6s4p3d1f1g pattern {711111/2111/211/2/1}
 Group   3 Type O   : 12s5p4d2f1g contracted to 6s4p3d1f1g pattern {711111/2111/211/2/1}
 Group   4 Type H   : 5s2p1d contracted to 3s1p1d pattern {311/2/1}

Atom   0C    basis set group =>   1
Atom   1C    basis set group =>   1
Atom   2N    basis set group =>   2
Atom   3O    basis set group =>   3
Atom   4O    basis set group =>   3
Atom   5C    basis set group =>   1
Atom   6N    basis set group =>   2
Atom   7H    basis set group =>   4
Atom   8H    basis set group =>   4
Atom   9H    basis set group =>   4
Atom  10C    basis set group =>   1
Atom  11H    basis set group =>   4
Atom  12H    basis set group =>   4
Atom  13H    basis set group =>   4
------------------------------------------------------------------------------
                           ORCA GTO INTEGRAL CALCULATION
                           -- RI-GTO INTEGRALS CHOSEN --
------------------------------------------------------------------------------
------------------------------------------------------------------------------
                   ___                                                        
                  /   \      - P O W E R E D   B Y -                         
                 /     \                                                     
                 |  |  |   _    _      __       _____    __    __             
                 |  |  |  | |  | |    /  \     |  _  \  |  |  /  |          
                  \  \/   | |  | |   /    \    | | | |  |  | /  /          
                 / \  \   | |__| |  /  /\  \   | |_| |  |  |/  /          
                |  |  |   |  __  | /  /__\  \  |    /   |      \           
                |  |  |   | |  | | |   __   |  |    \   |  |\   \          
                \     /   | |  | | |  |  |  |  | |\  \  |  | \   \       
                 \___/    |_|  |_| |__|  |__|  |_| \__\ |__|  \__/        
                                                                              
                      - O R C A' S   B I G   F R I E N D -                    
                                      &                                       
                       - I N T E G R A L  F E E D E R -                       
                                                                              
 v1 FN, 2020, v2 2021                                                         
------------------------------------------------------------------------------


Reading SHARK input file eda_anti.SHARKINP.tmp ... ok
----------------------
SHARK INTEGRAL PACKAGE
----------------------

Number of atoms                             ...     14
Number of basis functions                   ...    124
Number of shells                            ...     60
Maximum angular momentum                    ...      2
Integral batch strategy                     ... SHARK/LIBINT Hybrid
RI-J (if used) integral strategy            ... SPLIT-RIJ (Revised 2003 algorithm where possible)
Printlevel                                  ...      1
Contraction scheme used                     ... SEGMENTED contraction
Coulomb Range Separation                    ... NOT USED
Exchange Range Separation                   ... NOT USED
Finite Nucleus Model                        ... NOT USED
Auxiliary Coulomb fitting basis             ... AVAILABLE
   # of basis functions in Aux-J            ...    458
   # of shells in Aux-J                     ...    150
   Maximum angular momentum in Aux-J        ...      4
Auxiliary J/K fitting basis                 ... NOT available
Auxiliary Correlation fitting basis         ... NOT available
Auxiliary 'external' fitting basis          ... NOT available
Integral threshold                          ...     2.500000e-11
Primitive cut-off                           ...     2.500000e-12
Primitive pair pre-selection threshold      ...     2.500000e-12

Calculating pre-screening integrals         ... done (  0.0 sec) Dimension = 60
Organizing shell pair data                  ... done (  0.0 sec)
Shell pair information
Total number of shell pairs                 ...      1830
Shell pairs after pre-screening             ...      1684
Total number of primitive shell pairs       ...     10626
Primitive shell pairs kept                  ...      6324
          la=0 lb=0:    585 shell pairs
          la=1 lb=0:    545 shell pairs
          la=1 lb=1:    135 shell pairs
          la=2 lb=0:    258 shell pairs
          la=2 lb=1:    126 shell pairs
          la=2 lb=2:     35 shell pairs

Calculating one electron integrals          ... done (  0.0 sec)
Calculating RI/J V-Matrix + Cholesky decomp.... done (  0.0 sec)
Calculating Nuclear repulsion               ... done (  0.0 sec) ENN=    353.984828808692 Eh

SHARK setup successfully completed in   0.2 seconds

Maximum memory used throughout the entire GTOINT-calculation: 16.6 MB
-------------------------------------------------------------------------------
                                 ORCA SCF
-------------------------------------------------------------------------------

------------
SCF SETTINGS
------------
Hamiltonian:
 Density Functional     Method          .... DFT(GTOs)
 Exchange Functional    Exchange        .... B88
   X-Alpha parameter    XAlpha          ....  0.666667
   Becke's b parameter  XBeta           ....  0.004200
 Correlation Functional Correlation     .... LYP
 LDA part of GGA corr.  LDAOpt          .... VWN-5
 Gradients option       PostSCFGGA      .... off
 Hybrid DFT is turned on
   Fraction HF Exchange ScalHFX         ....  0.200000
   Scaling of DF-GGA-X  ScalDFX         ....  0.720000
   Scaling of DF-GGA-C  ScalDFC         ....  0.810000
   Scaling of DF-LDA-C  ScalLDAC        ....  1.000000
   Perturbative correction              ....  0.000000
   Density functional embedding theory  .... OFF
   NL short-range parameter             ....  4.800000
 RI-approximation to the Coulomb term is turned on
   Number of AuxJ basis functions       .... 458
   RIJ-COSX (HFX calculated with COS-X)).... on


General Settings:
 Integral files         IntName         .... eda_anti
 Hartree-Fock type      HFTyp           .... RHF
 Total Charge           Charge          ....    0
 Multiplicity           Mult            ....    1
 Number of Electrons    NEL             ....   60
 Basis Dimension        Dim             ....  124
 Nuclear Repulsion      ENuc            ....    353.9848288087 Eh

Convergence Acceleration:
 DIIS                   CNVDIIS         .... on
   Start iteration      DIISMaxIt       ....    12
   Startup error        DIISStart       ....  0.200000
   # of expansion vecs  DIISMaxEq       ....     5
   Bias factor          DIISBfac        ....   1.050
   Max. coefficient     DIISMaxC        ....  10.000
 Trust-Rad. Augm. Hess. CNVTRAH         .... auto
   Auto Start mean grad. ratio tolernc. ....  1.125000
   Auto Start start iteration           ....    20
   Auto Start num. interpolation iter.  ....    10
   Max. Number of Micro iterations      ....    16
   Max. Number of Macro iterations      .... Maxiter - #DIIS iter
   Number of Davidson start vectors     ....     2
   Converg. threshold I  (grad. norm)   ....   1.000e-05
   Converg. threshold II (energy diff.) ....   1.000e-08
   Grad. Scal. Fac. for Micro threshold ....   0.100
   Minimum threshold for Micro iter.    ....   0.010
   NR start threshold (gradient norm)   ....   0.001
   Initial trust radius                 ....   0.400
   Minimum AH scaling param. (alpha)    ....   1.000
   Maximum AH scaling param. (alpha)    .... 1000.000
   Orbital update algorithm             .... Taylor
   White noise on init. David. guess    .... on
   Maximum white noise                  ....   0.010
   Quad. conv. algorithm                .... NR
 SOSCF                  CNVSOSCF        .... on
   Start iteration      SOSCFMaxIt      ....   150
   Startup grad/error   SOSCFStart      ....  0.003300
 Level Shifting         CNVShift        .... on
   Level shift para.    LevelShift      ....    0.2500
   Turn off err/grad.   ShiftErr        ....    0.0010
 Zerner damping         CNVZerner       .... off
 Static damping         CNVDamp         .... on
   Fraction old density DampFac         ....    0.7000
   Max. Damping (<1)    DampMax         ....    0.9800
   Min. Damping (>=0)   DampMin         ....    0.0000
   Turn off err/grad.   DampErr         ....    0.1000
 Fernandez-Rico         CNVRico         .... off

SCF Procedure:
 Maximum # iterations   MaxIter         ....   125
 SCF integral mode      SCFMode         .... Direct
   Integral package                     .... SHARK and LIBINT hybrid scheme
 Reset frequency        DirectResetFreq ....    20
 Integral Threshold     Thresh          ....  2.500e-11 Eh
 Primitive CutOff       TCut            ....  2.500e-12 Eh

Convergence Tolerance:
 Convergence Check Mode ConvCheckMode   .... Total+1el-Energy
 Convergence forced     ConvForced      .... 0
 Energy Change          TolE            ....  1.000e-08 Eh
 1-El. energy change                    ....  1.000e-05 Eh
 Orbital Gradient       TolG            ....  1.000e-05
 Orbital Rotation angle TolX            ....  1.000e-05
 DIIS Error             TolErr          ....  5.000e-07


Diagonalization of the overlap matrix:
Smallest eigenvalue                        ... 2.046e-03
Time for diagonalization                   ...    0.002 sec
Threshold for overlap eigenvalues          ... 1.000e-08
Number of eigenvalues below threshold      ... 0
Time for construction of square roots      ...    0.002 sec
Total time needed                          ...    0.004 sec

Time for model grid setup =    0.131 sec

------------------------------
INITIAL GUESS: MODEL POTENTIAL
------------------------------
Loading Hartree-Fock densities                     ... done
Calculating cut-offs                               ... done
Initializing the effective Hamiltonian             ... done
Setting up the integral package (SHARK)            ... done
Starting the Coulomb interaction                   ... done (   0.1 sec)
Reading the grid                                   ... done
Mapping shells                                     ... done
Starting the XC term evaluation                    ... done (   0.1 sec)
  promolecular density results
     # of electrons  =     59.998003696
     EX              =    -51.841938153
     EC              =     -2.061875447
     EX+EC           =    -53.903813601
Transforming the Hamiltonian                       ... done (   0.0 sec)
Diagonalizing the Hamiltonian                      ... done (   0.0 sec)
Back transforming the eigenvectors                 ... done (   0.0 sec)
Now organizing SCF variables                       ... done
                      ------------------
                      INITIAL GUESS DONE (   0.3 sec)
                      ------------------
-------------------
DFT GRID GENERATION
-------------------

General Integration Accuracy     IntAcc      ... 4.388
Radial Grid Type                 RadialGrid  ... OptM3 with GC (2021)
Angular Grid (max. ang.)         AngularGrid ... 4 (Lebedev-302)
Angular grid pruning method      GridPruning ... 4 (adaptive)
Weight generation scheme         WeightScheme... Becke
Basis function cutoff            BFCut       ... 1.0000e-11
Integration weight cutoff        WCut        ... 1.0000e-14
Angular grids for H and He will be reduced by one unit
Partially contracted basis set               ... off
Rotationally invariant grid construction     ... off

Total number of grid points                  ...    67911
Total number of batches                      ...     1068
Average number of points per batch           ...       63
Average number of grid points per atom       ...     4851
Time for grid setup =    0.658 sec

--------------------
COSX GRID GENERATION
--------------------

GRIDX 1
-------
General Integration Accuracy     IntAcc      ... 3.816
Radial Grid Type                 RadialGrid  ... OptM3 with GC (2021)
Angular Grid (max. ang.)         AngularGrid ... 1 (Lebedev-50)
Angular grid pruning method      GridPruning ... 4 (adaptive)
Weight generation scheme         WeightScheme... Becke
Basis function cutoff            BFCut       ... 1.0000e-11
Integration weight cutoff        WCut        ... 1.0000e-14
Angular grids for H and He will be reduced by one unit
Partially contracted basis set               ... on
Rotationally invariant grid construction     ... off

Total number of grid points                  ...     8668
Total number of batches                      ...      143
Average number of points per batch           ...       60
Average number of grid points per atom       ...      619
UseSFitting                                  ... on

GRIDX 2
-------
General Integration Accuracy     IntAcc      ... 4.020
Radial Grid Type                 RadialGrid  ... OptM3 with GC (2021)
Angular Grid (max. ang.)         AngularGrid ... 2 (Lebedev-110)
Angular grid pruning method      GridPruning ... 4 (adaptive)
Weight generation scheme         WeightScheme... Becke
Basis function cutoff            BFCut       ... 1.0000e-11
Integration weight cutoff        WCut        ... 1.0000e-14
Angular grids for H and He will be reduced by one unit
Partially contracted basis set               ... on
Rotationally invariant grid construction     ... off

Total number of grid points                  ...    19217
Total number of batches                      ...      308
Average number of points per batch           ...       62
Average number of grid points per atom       ...     1373
UseSFitting                                  ... on

GRIDX 3
-------
General Integration Accuracy     IntAcc      ... 4.338
Radial Grid Type                 RadialGrid  ... OptM3 with GC (2021)
Angular Grid (max. ang.)         AngularGrid ... 3 (Lebedev-194)
Angular grid pruning method      GridPruning ... 4 (adaptive)
Weight generation scheme         WeightScheme... Becke
Basis function cutoff            BFCut       ... 1.0000e-11
Integration weight cutoff        WCut        ... 1.0000e-14
Angular grids for H and He will be reduced by one unit
Partially contracted basis set               ... on
Rotationally invariant grid construction     ... off

Total number of grid points                  ...    42341
Total number of batches                      ...      670
Average number of points per batch           ...       63
Average number of grid points per atom       ...     3024
UseSFitting                                  ... on

Time for X-Grid setup             =    0.622 sec


--------------------
CPCM SOLVATION MODEL
--------------------
CPCM parameters:
  Epsilon                                         ...       2.0200
  Refrac                                          ...       1.4250
  Rsolv                                           ...       1.3000
  Surface type                                    ... GAUSSIAN VDW
  Epsilon function type                           ...         CPCM
Radii:
 Radius for C  used is    3.8550 Bohr (=   2.0400 Ang.)
 Radius for N  used is    3.5149 Bohr (=   1.8600 Ang.)
 Radius for O  used is    3.4469 Bohr (=   1.8240 Ang.)
 Radius for H  used is    2.4944 Bohr (=   1.3200 Ang.)
Calculating surface                               ...        done! (  0.0s)
GEPOL surface points                              ...          868
GEPOL Volume                                      ...     949.3517
GEPOL Surface-area                                ...     575.0818
Calculating surface distance matrix               ...        done! (  0.0s)
Performing Cholesky decomposition & store         ...        done! (  0.0s)
Overall time for CPCM initialization              ...                 0.0s
--------------
SCF ITERATIONS
--------------
ITER       Energy         Delta-E        Max-DP      RMS-DP      [F,P]     Damp
               ***  Starting incremental Fock matrix formation  ***
  0   -415.5066157218   0.000000000000 0.10921485  0.00293942  0.2830819 0.7000
  1   -415.6065245912  -0.099908869371 0.06409104  0.00190248  0.1086133 0.7000
                               ***Turning on DIIS***
  2   -415.6421155972  -0.035591006022 0.06750072  0.00281449  0.0336180 0.0000
  3   -415.7028126615  -0.060697064284 0.04338162  0.00132118  0.0561947 0.0000
  4   -415.7144694536  -0.011656792038 0.01026599  0.00041920  0.0171435 0.0000
  5   -415.7154540989  -0.000984645332 0.00424757  0.00012274  0.0037953 0.0000
                      *** Initiating the SOSCF procedure ***
                           *** Shutting down DIIS ***
                      *** Re-Reading the Fockian *** 
                      *** Removing any level shift *** 
ITER      Energy       Delta-E        Grad      Rot      Max-DP    RMS-DP
  6   -415.71551672  -0.0000626195  0.000732  0.000732  0.001458  0.000047
               *** Restarting incremental Fock matrix formation ***
  7   -415.71552191  -0.0000051953  0.000355  0.001666  0.001457  0.000045
  8   -415.71552081   0.0000011026  0.000632  0.000964  0.001062  0.000027
  9   -415.71552502  -0.0000042063  0.000164  0.000515  0.000460  0.000018
 10   -415.71552466   0.0000003570  0.000175  0.000221  0.000272  0.000010
 11   -415.71552543  -0.0000007689  0.000023  0.000121  0.000105  0.000004
 12   -415.71552541   0.0000000196  0.000033  0.000046  0.000073  0.000002
 13   -415.71552545  -0.0000000374  0.000007  0.000020  0.000030  0.000001
 14   -415.71552544   0.0000000023  0.000009  0.000008  0.000019  0.000001
                  ***Gradient check signals convergence***
              ***Rediagonalizing the Fockian in SOSCF/NRSCF***

               *****************************************************
               *                     SUCCESS                       *
               *           SCF CONVERGED AFTER  15 CYCLES          *
               *****************************************************

Old exchange energy                            =    -10.486561599 Eh
New exchange energy                            =    -10.486563994 Eh
Exchange energy change after final integration =     -0.000002395 Eh
Total energy after final integration           =   -415.715527843 Eh
Final COS-X integration done in                =     4.462 sec

----------------
TOTAL SCF ENERGY
----------------

Total Energy       :         -415.71552784 Eh          -11312.19461 eV

Components:
Nuclear Repulsion  :          353.98482881 Eh            9632.41689 eV
Electronic Energy  :         -769.70035665 Eh          -20944.61151 eV
One Electron Energy:        -1266.61185374 Eh          -34466.26077 eV
Two Electron Energy:          496.91149709 Eh           13521.64926 eV
Max COSX asymmetry :            0.00000276 Eh               0.00008 eV
CPCM Dielectric    :           -0.00463008 Eh              -0.12599 eV

Virial components:
Potential Energy   :         -828.85444394 Eh          -22554.27606 eV
Kinetic Energy     :          413.13891610 Eh           11242.08144 eV
Virial Ratio       :            2.00623667


DFT components:
N(Alpha)           :       29.999996433612 electrons
N(Beta)            :       29.999996433612 electrons
N(Total)           :       59.999992867224 electrons
E(X)               :      -41.743933306248 Eh       
E(C)               :       -2.432021049297 Eh       
E(XC)              :      -44.175954355545 Eh       
DFET-embed. en.    :        0.000000000000 Eh       
CPCM Solvation Model Properties:
Surface-charge          :           -0.01346518
Charge-correction       :           -0.00002483 Eh              -0.00068 eV
Free-energy (cav+disp)  :  This term is not implemented in the current solvation scheme

---------------
SCF CONVERGENCE
---------------

  Last Energy change         ...   -2.9873e-09  Tolerance :   1.0000e-08
  Last MAX-Density change    ...    2.2204e-15  Tolerance :   1.0000e-07
  Last RMS-Density change    ...    4.5263e-17  Tolerance :   5.0000e-09
  Last Orbital Gradient      ...    5.1596e-07  Tolerance :   1.0000e-05
  Last Orbital Rotation      ...    2.6208e-06  Tolerance :   1.0000e-05

             **** THE GBW FILE WAS UPDATED (eda_anti.gbw) ****
             **** DENSITY eda_anti.scfp WAS UPDATED ****
             **** ENERGY FILE WAS UPDATED (eda_anti.en.tmp) ****
             **** THE GBW FILE WAS UPDATED (eda_anti.gbw) ****
             **** DENSITY eda_anti.scfp WAS UPDATED ****
----------------
ORBITAL ENERGIES
----------------

  NO   OCC          E(Eh)            E(eV) 
   0   2.0000     -19.184122      -522.0265 
   1   2.0000     -19.126510      -520.4588 
   2   2.0000     -14.497756      -394.5040 
   3   2.0000     -14.433399      -392.7528 
   4   2.0000     -10.317929      -280.7651 
   5   2.0000     -10.234478      -278.4943 
   6   2.0000     -10.233285      -278.4618 
   7   2.0000     -10.174716      -276.8681 
   8   2.0000      -1.135467       -30.8976 
   9   2.0000      -1.101340       -29.9690 
  10   2.0000      -1.011597       -27.5270 
  11   2.0000      -0.872153       -23.7325 
  12   2.0000      -0.769133       -20.9292 
  13   2.0000      -0.664685       -18.0870 
  14   2.0000      -0.602406       -16.3923 
  15   2.0000      -0.563037       -15.3210 
  16   2.0000      -0.530338       -14.4312 
  17   2.0000      -0.506305       -13.7773 
  18   2.0000      -0.485323       -13.2063 
  19   2.0000      -0.471804       -12.8384 
  20   2.0000      -0.457079       -12.4377 
  21   2.0000      -0.435849       -11.8601 
  22   2.0000      -0.416461       -11.3325 
  23   2.0000      -0.396202       -10.7812 
  24   2.0000      -0.385885       -10.5005 
  25   2.0000      -0.357459        -9.7270 
  26   2.0000      -0.347696        -9.4613 
  27   2.0000      -0.298489        -8.1223 
  28   2.0000      -0.275722        -7.5028 
  29   2.0000      -0.240093        -6.5333 
  30   0.0000      -0.063276        -1.7218 
  31   0.0000      -0.029019        -0.7896 
  32   0.0000       0.087113         2.3705 
  33   0.0000       0.105121         2.8605 
  34   0.0000       0.120962         3.2915 
  35   0.0000       0.153175         4.1681 
  36   0.0000       0.154605         4.2070 
  37   0.0000       0.162068         4.4101 
  38   0.0000       0.180412         4.9093 
  39   0.0000       0.197190         5.3658 
  40   0.0000       0.210178         5.7192 
  41   0.0000       0.243349         6.6219 
  42   0.0000       0.273688         7.4474 
  43   0.0000       0.312696         8.5089 
  44   0.0000       0.377132        10.2623 
  45   0.0000       0.395206        10.7541 
  46   0.0000       0.510782        13.8991 
  47   0.0000       0.517725        14.0880 
  48   0.0000       0.527083        14.3426 
  49   0.0000       0.535133        14.5617 
  50   0.0000       0.551265        15.0007 
  51   0.0000       0.556098        15.1322 
  52   0.0000       0.583855        15.8875 
  53   0.0000       0.596334        16.2271 
  54   0.0000       0.659168        17.9369 
  55   0.0000       0.661314        17.9953 
  56   0.0000       0.664670        18.0866 
  57   0.0000       0.688940        18.7470 
  58   0.0000       0.720868        19.6158 
  59   0.0000       0.747905        20.3515 
  60   0.0000       0.766940        20.8695 
  61   0.0000       0.799658        21.7598 
  62   0.0000       0.800738        21.7892 
  63   0.0000       0.847203        23.0536 
  64   0.0000       0.851270        23.1642 
  65   0.0000       0.874718        23.8023 
  66   0.0000       0.885666        24.1002 
  67   0.0000       0.902906        24.5693 
  68   0.0000       0.922554        25.1040 
  69   0.0000       0.948357        25.8061 
  70   0.0000       0.950963        25.8770 
  71   0.0000       0.987427        26.8693 
  72   0.0000       0.988808        26.9068 
  73   0.0000       1.015259        27.6266 
  74   0.0000       1.066668        29.0255 
  75   0.0000       1.122373        30.5413 
  76   0.0000       1.139646        31.0113 
  77   0.0000       1.213051        33.0088 
  78   0.0000       1.247261        33.9397 
  79   0.0000       1.294313        35.2200 
  80   0.0000       1.365809        37.1655 
  81   0.0000       1.400097        38.0986 
  82   0.0000       1.414690        38.4957 
  83   0.0000       1.445114        39.3236 
  84   0.0000       1.465135        39.8683 
  85   0.0000       1.473659        40.1003 
  86   0.0000       1.491784        40.5935 
  87   0.0000       1.496188        40.7133 
  88   0.0000       1.594754        43.3955 
  89   0.0000       1.645024        44.7634 
  90   0.0000       1.725072        46.9416 
  91   0.0000       1.768104        48.1126 
  92   0.0000       1.795126        48.8479 
  93   0.0000       1.805220        49.1225 
  94   0.0000       1.863335        50.7039 
  95   0.0000       1.872731        50.9596 
  96   0.0000       1.906122        51.8682 
  97   0.0000       1.915977        52.1364 
  98   0.0000       1.978977        53.8507 
  99   0.0000       1.998159        54.3727 
 100   0.0000       2.007682        54.6318 
 101   0.0000       2.018356        54.9223 
 102   0.0000       2.056406        55.9577 
 103   0.0000       2.068388        56.2837 
 104   0.0000       2.112382        57.4808 
 105   0.0000       2.130874        57.9840 
 106   0.0000       2.179561        59.3089 
 107   0.0000       2.203059        59.9483 
 108   0.0000       2.278419        61.9989 
 109   0.0000       2.323841        63.2349 
 110   0.0000       2.336676        63.5842 
 111   0.0000       2.433443        66.2173 
 112   0.0000       2.459851        66.9359 
 113   0.0000       2.583981        70.3137 
 114   0.0000       2.623189        71.3806 
 115   0.0000       2.644721        71.9665 
 116   0.0000       2.681740        72.9739 
 117   0.0000       2.790434        75.9316 
 118   0.0000       2.847665        77.4889 
 119   0.0000       2.899282        78.8935 
 120   0.0000       2.974419        80.9381 
 121   0.0000       3.090132        84.0868 
 122   0.0000       3.226693        87.8028 
 123   0.0000       3.438250        93.5595 

                    ********************************
                    * MULLIKEN POPULATION ANALYSIS *
                    ********************************

-----------------------
MULLIKEN ATOMIC CHARGES
-----------------------
   0 C :   -0.202323
   1 C :    0.606862
   2 N :    0.180921
   3 O :   -0.474087
   4 O :   -0.480967
   5 C :   -0.026735
   6 N :   -0.164597
   7 H :    0.225654
   8 H :    0.161649
   9 H :    0.161862
  10 C :   -0.463172
  11 H :    0.155609
  12 H :    0.159654
  13 H :    0.159670
Sum of atomic charges:    0.0000000

--------------------------------
MULLIKEN REDUCED ORBITAL CHARGES
--------------------------------
  0 C s       :     3.128200  s :     3.128200
      pz      :     1.276977  p :     3.028402
      px      :     1.017450
      py      :     0.733974
      dz2     :     0.005065  d :     0.045720
      dxz     :     0.001994
      dyz     :     0.008314
      dx2y2   :     0.017536
      dxy     :     0.012811
  1 C s       :     2.933759  s :     2.933759
      pz      :     0.815690  p :     2.330276
      px      :     0.740967
      py      :     0.773619
      dz2     :     0.007877  d :     0.129103
      dxz     :     0.013183
      dyz     :     0.024808
      dx2y2   :     0.028688
      dxy     :     0.054547
  2 N s       :     3.416169  s :     3.416169
      pz      :     1.223822  p :     3.332837
      px      :     1.187583
      py      :     0.921432
      dz2     :     0.005380  d :     0.070074
      dxz     :     0.000482
      dyz     :     0.037532
      dx2y2   :     0.008841
      dxy     :     0.017839
  3 O s       :     3.858248  s :     3.858248
      pz      :     1.763009  p :     4.587196
      px      :     1.204029
      py      :     1.620158
      dz2     :     0.003665  d :     0.028642
      dxz     :     0.004456
      dyz     :     0.003780
      dx2y2   :     0.005370
      dxy     :     0.011371
  4 O s       :     3.852610  s :     3.852610
      pz      :     1.460383  p :     4.600547
      px      :     1.781455
      py      :     1.358709
      dz2     :     0.002797  d :     0.027810
      dxz     :     0.000263
      dyz     :     0.009938
      dx2y2   :     0.007809
      dxy     :     0.007004
  5 C s       :     3.198715  s :     3.198715
      pz      :     1.086377  p :     2.764793
      px      :     0.719401
      py      :     0.959015
      dz2     :     0.011072  d :     0.063227
      dxz     :     0.008144
      dyz     :     0.014932
      dx2y2   :     0.013065
      dxy     :     0.016014
  6 N s       :     3.843460  s :     3.843460
      pz      :     1.267097  p :     3.263347
      px      :     0.830507
      py      :     1.165743
      dz2     :     0.005539  d :     0.057791
      dxz     :     0.000463
      dyz     :     0.017507
      dx2y2   :     0.014731
      dxy     :     0.019550
  7 H s       :     0.774346  s :     0.774346
  8 H s       :     0.838351  s :     0.838351
  9 H s       :     0.838138  s :     0.838138
 10 C s       :     3.309972  s :     3.309972
      pz      :     1.086694  p :     3.119829
      px      :     1.017776
      py      :     1.015358
      dz2     :     0.007588  d :     0.033372
      dxz     :     0.001457
      dyz     :     0.011046
      dx2y2   :     0.005179
      dxy     :     0.008102
 11 H s       :     0.844391  s :     0.844391
 12 H s       :     0.840346  s :     0.840346
 13 H s       :     0.840330  s :     0.840330


                     *******************************
                     * LOEWDIN POPULATION ANALYSIS *
                     *******************************

----------------------
LOEWDIN ATOMIC CHARGES
----------------------
   0 C :   -0.277401
   1 C :    0.129340
   2 N :    0.210698
   3 O :   -0.161954
   4 O :   -0.259713
   5 C :   -0.091636
   6 N :   -0.021145
   7 H :    0.183933
   8 H :    0.128111
   9 H :    0.128204
  10 C :   -0.367876
  11 H :    0.134937
  12 H :    0.132220
  13 H :    0.132281

-------------------------------
LOEWDIN REDUCED ORBITAL CHARGES
-------------------------------
  0 C s       :     2.913710  s :     2.913710
      pz      :     1.257807  p :     3.253479
      px      :     1.081228
      py      :     0.914444
      dz2     :     0.011303  d :     0.110212
      dxz     :     0.003891
      dyz     :     0.016486
      dx2y2   :     0.045286
      dxy     :     0.033245
  1 C s       :     2.825682  s :     2.825682
      pz      :     0.823300  p :     2.740683
      px      :     0.922974
      py      :     0.994409
      dz2     :     0.019086  d :     0.304294
      dxz     :     0.027522
      dyz     :     0.052384
      dx2y2   :     0.069903
      dxy     :     0.135399
  2 N s       :     3.075559  s :     3.075559
      pz      :     1.171389  p :     3.542392
      px      :     1.130697
      py      :     1.240306
      dz2     :     0.014503  d :     0.171351
      dxz     :     0.001013
      dyz     :     0.087530
      dx2y2   :     0.029380
      dxy     :     0.038925
  3 O s       :     3.466462  s :     3.466462
      pz      :     1.740348  p :     4.628046
      px      :     1.252417
      py      :     1.635281
      dz2     :     0.008320  d :     0.067446
      dxz     :     0.010766
      dyz     :     0.005265
      dx2y2   :     0.015481
      dxy     :     0.027614
  4 O s       :     3.553363  s :     3.553363
      pz      :     1.447995  p :     4.651359
      px      :     1.750612
      py      :     1.452752
      dz2     :     0.006892  d :     0.054990
      dxz     :     0.000414
      dyz     :     0.014892
      dx2y2   :     0.020599
      dxy     :     0.012194
  5 C s       :     2.934101  s :     2.934101
      pz      :     1.128926  p :     3.023526
      px      :     0.838886
      py      :     1.055713
      dz2     :     0.022118  d :     0.134009
      dxz     :     0.016933
      dyz     :     0.028971
      dx2y2   :     0.027183
      dxy     :     0.038805
  6 N s       :     3.460644  s :     3.460644
      pz      :     1.264797  p :     3.449347
      px      :     0.848493
      py      :     1.336057
      dz2     :     0.012553  d :     0.111153
      dxz     :     0.000741
      dyz     :     0.031332
      dx2y2   :     0.035333
      dxy     :     0.031194
  7 H s       :     0.816067  s :     0.816067
  8 H s       :     0.871889  s :     0.871889
  9 H s       :     0.871796  s :     0.871796
 10 C s       :     2.985603  s :     2.985603
      pz      :     1.133240  p :     3.316688
      px      :     1.089642
      py      :     1.093806
      dz2     :     0.014357  d :     0.065585
      dxz     :     0.002628
      dyz     :     0.020740
      dx2y2   :     0.010537
      dxy     :     0.017324
 11 H s       :     0.865063  s :     0.865063
 12 H s       :     0.867780  s :     0.867780
 13 H s       :     0.867719  s :     0.867719


                      *****************************
                      * MAYER POPULATION ANALYSIS *
                      *****************************

  NA   - Mulliken gross atomic population
  ZA   - Total nuclear charge
  QA   - Mulliken gross atomic charge
  VA   - Mayer's total valence
  BVA  - Mayer's bonded valence
  FA   - Mayer's free valence

  ATOM       NA         ZA         QA         VA         BVA        FA
  0 C      6.2023     6.0000    -0.2023     3.5764     3.5764    -0.0000
  1 C      5.3931     6.0000     0.6069     4.0278     4.0278     0.0000
  2 N      6.8191     7.0000     0.1809     3.6774     3.6774     0.0000
  3 O      8.4741     8.0000    -0.4741     1.9996     1.9996    -0.0000
  4 O      8.4810     8.0000    -0.4810     2.0639     2.0639    -0.0000
  5 C      6.0267     6.0000    -0.0267     3.7848     3.7848     0.0000
  6 N      7.1646     7.0000    -0.1646     2.7342     2.7342     0.0000
  7 H      0.7743     1.0000     0.2257     0.9234     0.9234     0.0000
  8 H      0.8384     1.0000     0.1616     0.9289     0.9289    -0.0000
  9 H      0.8381     1.0000     0.1619     0.9292     0.9292    -0.0000
 10 C      6.4632     6.0000    -0.4632     3.8492     3.8492     0.0000
 11 H      0.8444     1.0000     0.1556     0.9350     0.9350     0.0000
 12 H      0.8403     1.0000     0.1597     0.9351     0.9351     0.0000
 13 H      0.8403     1.0000     0.1597     0.9352     0.9352     0.0000

  Mayer bond orders larger than 0.100000
B(  0-C ,  1-C ) :   1.0767 B(  0-C ,  2-N ) :   1.2816 B(  0-C ,  6-N ) :   0.2662 
B(  0-C ,  7-H ) :   0.8910 B(  1-C ,  3-O ) :   1.0468 B(  1-C ,  4-O ) :   1.8074 
B(  2-N ,  6-N ) :   2.3297 B(  3-O ,  5-C ) :   0.8515 B(  5-C ,  8-H ) :   0.9303 
B(  5-C ,  9-H ) :   0.9301 B(  5-C , 10-C ) :   1.0227 B( 10-C , 11-H ) :   0.9434 
B( 10-C , 12-H ) :   0.9470 B( 10-C , 13-H ) :   0.9470 

-------
TIMINGS
-------

Total SCF time: 0 days 0 hours 0 min 43 sec 

Total time                  ....      43.839 sec
Sum of individual times     ....      43.628 sec  ( 99.5%)

Fock matrix formation       ....      41.952 sec  ( 95.7%)
  Split-RI-J                ....       2.604 sec  (  6.2% of F)
  Chain of spheres X        ....      28.838 sec  ( 68.7% of F)
  XC integration            ....       5.913 sec  ( 14.1% of F)
    Basis function eval.    ....       2.385 sec  ( 40.3% of XC)
    Density eval.           ....       1.417 sec  ( 24.0% of XC)
    XC-Functional eval.     ....       0.459 sec  (  7.8% of XC)
    XC-Potential eval.      ....       1.174 sec  ( 19.8% of XC)
Diagonalization             ....       0.017 sec  (  0.0%)
Density matrix formation    ....       0.002 sec  (  0.0%)
Population analysis         ....       0.014 sec  (  0.0%)
Initial guess               ....       0.208 sec  (  0.5%)
Orbital Transformation      ....       0.000 sec  (  0.0%)
Orbital Orthonormalization  ....       0.000 sec  (  0.0%)
DIIS solution               ....       0.007 sec  (  0.0%)
SOSCF solution              ....       0.017 sec  (  0.0%)
Grid generation             ....       1.410 sec  (  3.2%)

Maximum memory used throughout the entire SCF-calculation: 63.1 MB

-------------------------   --------------------
FINAL SINGLE POINT ENERGY      -415.715527842954
-------------------------   --------------------

------------------------------------------------------------------------------
                         ORCA SCF GRADIENT CALCULATION
------------------------------------------------------------------------------

 ... reading COSX grid (gridx3)
Gradient of the Kohn-Sham DFT energy:
Kohn-Sham wavefunction type      ... RKS
Hartree-Fock exchange scaling    ...    0.200
Number of operators              ...    1
Number of atoms                  ...   14
Basis set dimensions             ...  124
Integral neglect threshold       ... 2.5e-11
Integral primitive cutoff        ... 2.5e-12
SHARK Integral package           ... ON

Nuc. rep. gradient       (SHARK) ... done (  0.0 sec)
HCore & Overlap gradient (SHARK) ... done (  0.1 sec)
RI-J gradient            (SHARK) ... done (  0.6 sec)
COSX-gradient                    ... done (  5.8 sec)
Exchange-correlation gradient    ... done

------------------
CARTESIAN GRADIENT
------------------

   1   C   :   -0.004845629   -0.003017189   -0.000211977
   2   C   :   -0.002936038    0.001109197    0.000241476
   3   N   :   -0.001110605   -0.013051501   -0.001883541
   4   O   :   -0.003268991    0.003916582    0.000634197
   5   O   :   -0.002072227   -0.006689704   -0.000905858
   6   C   :    0.015392058   -0.000889262   -0.000654648
   7   N   :    0.000364729    0.013720533    0.002036939
   8   H   :    0.005602598    0.002643674    0.000162040
   9   H   :   -0.004303428   -0.000372060    0.003884691
  10   H   :   -0.004596512    0.000803486   -0.003451077
  11   C   :    0.005024110    0.005864782    0.000707088
  12   H   :   -0.008582669    0.004489971    0.000987246
  13   H   :    0.003016693   -0.005526405    0.007635817
  14   H   :    0.002400732   -0.003030200   -0.009142126

Difference to translation invariance:
           :    0.0000848197   -0.0000280947    0.0000402661

Difference to rotation invariance:
           :   -0.0000903871    0.0001124765    0.0005721431

Norm of the cartesian gradient     ...    0.0343782952
RMS gradient                       ...    0.0053046861
MAX gradient                       ...    0.0153920577

-------
TIMINGS
-------

Total SCF gradient time            ...       10.182 sec

One electron gradient       ....       0.091 sec  (  0.9%)
RI-J Coulomb gradient       ....       0.551 sec  (  5.4%)
COSX gradient               ....       5.809 sec  ( 57.1%)
XC gradient                 ....       3.023 sec  ( 29.7%)
CPCM gradient               ....       0.255 sec  (  2.5%)
   A-Matrix (El+Nuc)        ....       0.047 sec  (  0.5%)
   Potential                ....       0.209 sec  (  2.0%)

Maximum memory used throughout the entire SCFGRAD-calculation: 50.0 MB
------------------------------------------------------------------------------
                         ORCA GEOMETRY RELAXATION STEP
------------------------------------------------------------------------------

Reading the OPT-File                    .... done
Getting information on internals        .... done
Copying old internal coords+grads       .... done
Making the new internal coordinates     .... (new redundants).... done
Validating the new internal coordinates .... (new redundants).... done
Calculating the B-matrix                .... done
Calculating the G,G- and P matrices     .... done
Transforming gradient to internals      .... done
Projecting the internal gradient        .... done
Number of atoms                         ....  14
Number of internal coordinates          ....  52
Current Energy                          ....  -415.715527843 Eh
Current gradient norm                   ....     0.034378295 Eh/bohr
Maximum allowed component of the step   ....  0.300
Current trust radius                    ....  0.300
Evaluating the initial hessian          ....  (Almloef) done
Projecting the Hessian                  .... done
Forming the augmented Hessian           .... done
Diagonalizing the augmented Hessian     .... done
Last element of RFO vector              ....  0.996946383
Lowest eigenvalues of augmented Hessian:
 -0.002051224  0.011947747  0.016132240  0.016132962  0.018272389
Length of the computed step             ....  0.078328302
The final length of the internal step   ....  0.078328302
Converting the step to cartesian space:
 Initial RMS(Int)=    0.0108621812
Transforming coordinates:
 Iter   0:  RMS(Cart)=    0.0250639016 RMS(Int)=    0.8711043195
 Iter   1:  RMS(Cart)=    0.0002707476 RMS(Int)=    0.0001793683
 Iter   2:  RMS(Cart)=    0.0000043806 RMS(Int)=    0.0000042488
 Iter   3:  RMS(Cart)=    0.0000003412 RMS(Int)=    0.0000003544
 Iter   4:  RMS(Cart)=    0.0000001648 RMS(Int)=    0.0000001710
 Iter   5:  RMS(Cart)=    0.0000000824 RMS(Int)=    0.0000000855
done
Storing new coordinates                 .... done

                                .--------------------.
          ----------------------|Geometry convergence|-------------------------
          Item                value                   Tolerance       Converged
          ---------------------------------------------------------------------
          RMS gradient        0.0040708295            0.0001000000      NO
          MAX gradient        0.0138703623            0.0003000000      NO
          RMS step            0.0108621812            0.0020000000      NO
          MAX step            0.0289288436            0.0040000000      NO
          ........................................................
          Max(Bonds)      0.0153      Max(Angles)    1.15
          Max(Dihed)        1.08      Max(Improp)    0.00
          ---------------------------------------------------------------------

The optimization has not yet converged - more geometry cycles are needed


    ---------------------------------------------------------------------------
                         Redundant Internal Coordinates
                            (Angstroem and degrees)

        Definition                    Value    dE/dq     Step     New-Value
    ----------------------------------------------------------------------------
     1. B(C   1,C   0)                1.4580 -0.000171  0.0002    1.4581   
     2. B(N   2,C   0)                1.3077 -0.000657  0.0005    1.3082   
     3. B(O   3,C   1)                1.3473 -0.007208  0.0058    1.3532   
     4. B(O   4,C   1)                1.2149 -0.006681  0.0033    1.2183   
     5. B(C   5,O   3)                1.4311 -0.006726  0.0074    1.4384   
     6. B(N   6,N   2)                1.1320 -0.013870  0.0057    1.1377   
     7. B(H   7,C   0)                1.0896  0.006189 -0.0090    1.0805   
     8. B(H   8,C   5)                1.1006  0.003616 -0.0055    1.0951   
     9. B(H   9,C   5)                1.1005  0.003607 -0.0055    1.0951   
    10. B(C  10,C   5)                1.5200 -0.002592  0.0035    1.5235   
    11. B(H  11,C  10)                1.1106  0.009718 -0.0153    1.0953   
    12. B(H  12,C  10)                1.1106  0.009638 -0.0152    1.0954   
    13. B(H  13,C  10)                1.1106  0.009696 -0.0153    1.0953   
    14. A(N   2,C   0,H   7)          117.38  0.000673   -0.09    117.29   
    15. A(C   1,C   0,H   7)          122.11  0.000859   -0.13    121.99   
    16. A(C   1,C   0,N   2)          120.51 -0.001532    0.22    120.73   
    17. A(C   0,C   1,O   4)          123.75  0.002340   -0.29    123.47   
    18. A(C   0,C   1,O   3)          112.25  0.000586   -0.07    112.18   
    19. A(O   3,C   1,O   4)          123.99 -0.002926    0.36    124.35   
    20. L(C   0,N   2,N   6,C   1, 1) 179.41 -0.000265    0.03    179.44   
    21. L(C   0,N   2,N   6,C   1, 2) 179.92 -0.000019    0.00    179.92   
    22. A(C   1,O   3,C   5)          116.44 -0.000021    0.00    116.45   
    23. A(H   8,C   5,C  10)          110.19 -0.002336    0.79    110.98   
    24. A(O   3,C   5,C  10)          106.02 -0.006428    1.15    107.17   
    25. A(H   8,C   5,H   9)          108.95  0.001624   -0.66    108.29   
    26. A(O   3,C   5,H   9)          110.76  0.004631   -1.00    109.75   
    27. A(H   9,C   5,C  10)          110.18 -0.002321    0.78    110.96   
    28. A(O   3,C   5,H   8)          110.72  0.004618   -1.00    109.73   
    29. A(H  12,C  10,H  13)          108.98  0.002277   -0.33    108.65   
    30. A(H  11,C  10,H  13)          108.98  0.001499   -0.33    108.65   
    31. A(C   5,C  10,H  13)          109.95 -0.002529    0.49    110.44   
    32. A(H  11,C  10,H  12)          108.98  0.001542   -0.33    108.65   
    33. A(C   5,C  10,H  12)          109.95 -0.002686    0.52    110.47   
    34. A(C   5,C  10,H  11)          109.95 -0.000010   -0.02    109.93   
    35. D(O   4,C   1,C   0,N   2)   -179.77  0.000001   -0.01   -179.78   
    36. D(O   4,C   1,C   0,H   7)      0.06 -0.000020    0.05      0.11   
    37. D(O   3,C   1,C   0,H   7)   -179.94  0.000012   -0.03   -179.97   
    38. D(O   3,C   1,C   0,N   2)      0.23  0.000032   -0.09      0.14   
    39. D(C   5,O   3,C   1,O   4)     -0.05 -0.000030    0.04     -0.01   
    40. D(C   5,O   3,C   1,C   0)    179.95 -0.000062    0.12    180.06   
    41. D(C  10,C   5,O   3,C   1)    179.41  0.000007   -0.00    179.41   
    42. D(H   9,C   5,O   3,C   1)     59.89  0.004114   -1.08     58.81   
    43. D(H   8,C   5,O   3,C   1)    -61.08 -0.004121    1.08    -60.00   
    44. D(H  12,C  10,C   5,H   8)    -59.65 -0.000695    0.17    -59.48   
    45. D(H  12,C  10,C   5,O   3)     60.21 -0.000225    0.08     60.29   
    46. D(H  11,C  10,C   5,H   9)    -59.90  0.000477   -0.12    -60.02   
    47. D(H  11,C  10,C   5,H   8)     60.35 -0.000485    0.07     60.42   
    48. D(H  12,C  10,C   5,H   9)   -179.90  0.000267   -0.02   -179.92   
    49. D(H  11,C  10,C   5,O   3)   -179.79 -0.000015   -0.02   -179.81   
    50. D(H  13,C  10,C   5,H   9)     60.10  0.000732   -0.24     59.86   
    51. D(H  13,C  10,C   5,H   8)   -179.65 -0.000229   -0.05   -179.70   
    52. D(H  13,C  10,C   5,O   3)    -59.79  0.000240   -0.14    -59.93   
    ----------------------------------------------------------------------------

         *************************************************************
         *                GEOMETRY OPTIMIZATION CYCLE   2            *
         *************************************************************
---------------------------------
CARTESIAN COORDINATES (ANGSTROEM)
---------------------------------
  C      0.926001   -0.661325   -0.097769
  C     -0.314474    0.087598    0.065084
  N      0.905300   -1.954902   -0.291541
  O     -1.405652   -0.709320   -0.007586
  O     -0.353547    1.292016    0.243973
  C     -2.682060   -0.062775    0.140118
  N      0.876157   -3.079634   -0.460414
  H      1.893192   -0.180576   -0.066283
  H     -2.736930    0.427251    1.117949
  H     -2.801055    0.702120   -0.634443
  C     -3.750272   -1.141218    0.009740
  H     -4.745412   -0.695349    0.112353
  H     -3.624763   -1.900947    0.788810
  H     -3.684123   -1.628802   -0.968829

----------------------------
CARTESIAN COORDINATES (A.U.)
----------------------------
  NO LB      ZA    FRAG     MASS         X           Y           Z
   0 C     6.0000    0    12.011    1.749889   -1.249724   -0.184757
   1 C     6.0000    0    12.011   -0.594270    0.165536    0.122991
   2 N     7.0000    0    14.007    1.710768   -3.694230   -0.550933
   3 O     8.0000    0    15.999   -2.656297   -1.340420   -0.014336
   4 O     8.0000    0    15.999   -0.668107    2.441556    0.461042
   5 C     6.0000    0    12.011   -5.068360   -0.118628    0.264786
   6 N     7.0000    0    14.007    1.655696   -5.819665   -0.870057
   7 H     1.0000    0     1.008    3.577615   -0.341239   -0.125256
   8 H     1.0000    0     1.008   -5.172048    0.807387    2.112617
   9 H     1.0000    0     1.008   -5.293227    1.326815   -1.198923
  10 C     6.0000    0    12.011   -7.086987   -2.156590    0.018405
  11 H     1.0000    0     1.008   -8.967529   -1.314019    0.212316
  12 H     1.0000    0     1.008   -6.849809   -3.592270    1.490636
  13 H     1.0000    0     1.008   -6.961984   -3.077989   -1.830821

--------------------------------
INTERNAL COORDINATES (ANGSTROEM)
--------------------------------
 C      0   0   0     0.000000000000     0.00000000     0.00000000
 C      1   0   0     1.458144824363     0.00000000     0.00000000
 N      1   2   0     1.308173397206   120.72805369     0.00000000
 O      2   1   3     1.353154396896   112.18112379     0.13902898
 O      2   1   3     1.218257199810   123.46751252   180.21657741
 C      4   2   1     1.438421321005   116.44508177   180.06428339
 N      3   1   2     1.137712188821   179.43857521     4.29017984
 H      1   2   3     1.080541642950   121.98590725   179.89428132
 H      6   4   2     1.095120163480   109.71090703   299.98644459
 H      6   4   2     1.095066022202   109.74006889    58.83156219
 C      6   4   2     1.523520410168   107.17050495   179.40592895
 H     11   6   4     1.095277174071   109.92968912   180.18764931
 H     11   6   4     1.095395961577   110.47191206    60.28833593
 H     11   6   4     1.095312267665   110.43963909   300.06484221

---------------------------
INTERNAL COORDINATES (A.U.)
---------------------------
 C      0   0   0     0.000000000000     0.00000000     0.00000000
 C      1   0   0     2.755494381641     0.00000000     0.00000000
 N      1   2   0     2.472089456401   120.72805369     0.00000000
 O      2   1   3     2.557091227044   112.18112379     0.13902898
 O      2   1   3     2.302172468319   123.46751252   180.21657741
 C      4   2   1     2.718222361893   116.44508177   180.06428339
 N      3   1   2     2.149964456095   179.43857521     4.29017984
 H      1   2   3     2.041927781472   121.98590725   179.89428132
 H      6   4   2     2.069477192713   109.71090703   299.98644459
 H      6   4   2     2.069374880524   109.74006889    58.83156219
 C      6   4   2     2.879036334658   107.17050495   179.40592895
 H     11   6   4     2.069773899729   109.92968912   180.18764931
 H     11   6   4     2.069998375584   110.47191206    60.28833593
 H     11   6   4     2.069840217012   110.43963909   300.06484221

------------------------------------------------------------------------------
                   ___                                                        
                  /   \      - P O W E R E D   B Y -                         
                 /     \                                                     
                 |  |  |   _    _      __       _____    __    __             
                 |  |  |  | |  | |    /  \     |  _  \  |  |  /  |          
                  \  \/   | |  | |   /    \    | | | |  |  | /  /          
                 / \  \   | |__| |  /  /\  \   | |_| |  |  |/  /          
                |  |  |   |  __  | /  /__\  \  |    /   |      \           
                |  |  |   | |  | | |   __   |  |    \   |  |\   \          
                \     /   | |  | | |  |  |  |  | |\  \  |  | \   \       
                 \___/    |_|  |_| |__|  |__|  |_| \__\ |__|  \__/        
                                                                              
                      - O R C A' S   B I G   F R I E N D -                    
                                      &                                       
                       - I N T E G R A L  F E E D E R -                       
                                                                              
 v1 FN, 2020, v2 2021                                                         
------------------------------------------------------------------------------


Reading SHARK input file eda_anti.SHARKINP.tmp ... ok
----------------------
SHARK INTEGRAL PACKAGE
----------------------

Number of atoms                             ...     14
Number of basis functions                   ...    124
Number of shells                            ...     60
Maximum angular momentum                    ...      2
Integral batch strategy                     ... SHARK/LIBINT Hybrid
RI-J (if used) integral strategy            ... SPLIT-RIJ (Revised 2003 algorithm where possible)
Printlevel                                  ...      1
Contraction scheme used                     ... SEGMENTED contraction
Coulomb Range Separation                    ... NOT USED
Exchange Range Separation                   ... NOT USED
Finite Nucleus Model                        ... NOT USED
Auxiliary Coulomb fitting basis             ... AVAILABLE
   # of basis functions in Aux-J            ...    458
   # of shells in Aux-J                     ...    150
   Maximum angular momentum in Aux-J        ...      4
Auxiliary J/K fitting basis                 ... NOT available
Auxiliary Correlation fitting basis         ... NOT available
Auxiliary 'external' fitting basis          ... NOT available
Integral threshold                          ...     2.500000e-11
Primitive cut-off                           ...     2.500000e-12
Primitive pair pre-selection threshold      ...     2.500000e-12

Calculating pre-screening integrals         ... done (  0.0 sec) Dimension = 60
Organizing shell pair data                  ... done (  0.0 sec)
Shell pair information
Total number of shell pairs                 ...      1830
Shell pairs after pre-screening             ...      1680
Total number of primitive shell pairs       ...     10626
Primitive shell pairs kept                  ...      6311
          la=0 lb=0:    583 shell pairs
          la=1 lb=0:    544 shell pairs
          la=1 lb=1:    135 shell pairs
          la=2 lb=0:    257 shell pairs
          la=2 lb=1:    126 shell pairs
          la=2 lb=2:     35 shell pairs

Calculating one electron integrals          ... done (  0.0 sec)
Calculating RI/J V-Matrix + Cholesky decomp.... done (  0.0 sec)
Calculating Nuclear repulsion               ... done (  0.0 sec) ENN=    353.040974688239 Eh

SHARK setup successfully completed in   0.1 seconds

Maximum memory used throughout the entire GTOINT-calculation: 16.5 MB

Diagonalization of the overlap matrix:
Smallest eigenvalue                        ... 2.072e-03
Time for diagonalization                   ...    0.002 sec
Threshold for overlap eigenvalues          ... 1.000e-08
Number of eigenvalues below threshold      ... 0
Time for construction of square roots      ...    0.002 sec
Total time needed                          ...    0.004 sec

-------------------
DFT GRID GENERATION
-------------------

General Integration Accuracy     IntAcc      ... 4.388
Radial Grid Type                 RadialGrid  ... OptM3 with GC (2021)
Angular Grid (max. ang.)         AngularGrid ... 4 (Lebedev-302)
Angular grid pruning method      GridPruning ... 4 (adaptive)
Weight generation scheme         WeightScheme... Becke
Basis function cutoff            BFCut       ... 1.0000e-11
Integration weight cutoff        WCut        ... 1.0000e-14
Angular grids for H and He will be reduced by one unit
Partially contracted basis set               ... off
Rotationally invariant grid construction     ... off

Total number of grid points                  ...    67912
Total number of batches                      ...     1068
Average number of points per batch           ...       63
Average number of grid points per atom       ...     4851
Time for grid setup =    0.592 sec

--------------------
COSX GRID GENERATION
--------------------

GRIDX 1
-------
General Integration Accuracy     IntAcc      ... 3.816
Radial Grid Type                 RadialGrid  ... OptM3 with GC (2021)
Angular Grid (max. ang.)         AngularGrid ... 1 (Lebedev-50)
Angular grid pruning method      GridPruning ... 4 (adaptive)
Weight generation scheme         WeightScheme... Becke
Basis function cutoff            BFCut       ... 1.0000e-11
Integration weight cutoff        WCut        ... 1.0000e-14
Angular grids for H and He will be reduced by one unit
Partially contracted basis set               ... on
Rotationally invariant grid construction     ... off

Total number of grid points                  ...     8664
Total number of batches                      ...      144
Average number of points per batch           ...       60
Average number of grid points per atom       ...      619
UseSFitting                                  ... on

GRIDX 2
-------
General Integration Accuracy     IntAcc      ... 4.020
Radial Grid Type                 RadialGrid  ... OptM3 with GC (2021)
Angular Grid (max. ang.)         AngularGrid ... 2 (Lebedev-110)
Angular grid pruning method      GridPruning ... 4 (adaptive)
Weight generation scheme         WeightScheme... Becke
Basis function cutoff            BFCut       ... 1.0000e-11
Integration weight cutoff        WCut        ... 1.0000e-14
Angular grids for H and He will be reduced by one unit
Partially contracted basis set               ... on
Rotationally invariant grid construction     ... off

Total number of grid points                  ...    19208
Total number of batches                      ...      309
Average number of points per batch           ...       62
Average number of grid points per atom       ...     1372
UseSFitting                                  ... on

GRIDX 3
-------
General Integration Accuracy     IntAcc      ... 4.338
Radial Grid Type                 RadialGrid  ... OptM3 with GC (2021)
Angular Grid (max. ang.)         AngularGrid ... 3 (Lebedev-194)
Angular grid pruning method      GridPruning ... 4 (adaptive)
Weight generation scheme         WeightScheme... Becke
Basis function cutoff            BFCut       ... 1.0000e-11
Integration weight cutoff        WCut        ... 1.0000e-14
Angular grids for H and He will be reduced by one unit
Partially contracted basis set               ... on
Rotationally invariant grid construction     ... off

Total number of grid points                  ...    42347
Total number of batches                      ...      668
Average number of points per batch           ...       63
Average number of grid points per atom       ...     3025
UseSFitting                                  ... on

Time for X-Grid setup             =    0.770 sec


--------------------
CPCM SOLVATION MODEL
--------------------
CPCM parameters:
  Epsilon                                         ...       2.0200
[...]
     10       0.008397  -0.018718   0.066430   0.005882  -0.013097  -0.015822
     11      -0.050954   0.000492   0.004478  -0.032011  -0.002633  -0.003844
     12      -0.000861  -0.015311   0.046852   0.000237   0.009388   0.006812
     13       0.000030   0.013022  -0.019313  -0.000271  -0.058672   0.021035
     14      -0.003282   0.002655  -0.004834  -0.000450  -0.008948   0.002759
     15       0.006271   0.012729  -0.064862  -0.001549   0.088250   0.081731
     16      -0.028002   0.003114  -0.004140   0.003063   0.030390   0.033867
     17       0.169551  -0.005308   0.003524  -0.021135   0.001439   0.002283
     18      -0.000250  -0.009918   0.004223   0.000022  -0.007049   0.003995
     19       0.003721   0.157174  -0.014319  -0.000171  -0.075978   0.033210
     20       0.000653   0.023737  -0.002319  -0.000076  -0.010943   0.004749
     21       0.003656   0.263454   0.444345   0.003352   0.319487  -0.091787
     22      -0.018516  -0.902497  -0.585108  -0.004566  -0.576184   0.209200
     23       0.004909  -0.145085  -0.105551   0.001149  -0.098800   0.034884
     24      -0.325356  -0.011305   0.365534  -0.645724  -0.441839  -0.391114
     25       0.429957  -0.006663   0.005937  -0.071671  -0.072222  -0.124763
     26      -0.065437   0.001754  -0.003775   0.006356   0.039318   0.063063
     27       0.307688  -0.028832   0.336420   0.654148  -0.443077  -0.393451
     28      -0.387088   0.018047  -0.002225   0.075210  -0.059845  -0.102230
     29      -0.217132   0.010510  -0.023547  -0.014873  -0.028351  -0.071068
     30      -0.004401   0.002280   0.002282   0.002865  -0.008045   0.051825
     31       0.019340  -0.005445  -0.012023  -0.013100   0.034025   0.083209
     32      -0.115083   0.002753  -0.005045   0.081932   0.005922   0.011810
     33       0.005295   0.009526   0.021468  -0.003005  -0.097486  -0.206808
     34      -0.039089   0.012964   0.023817   0.016784  -0.149616  -0.442094
     35       0.230112  -0.005544   0.007062  -0.103618  -0.020929  -0.065205
     36       0.212368  -0.018361   0.000188  -0.134134  -0.042524  -0.301901
     37       0.302610  -0.016702   0.031597  -0.194751  -0.071833  -0.178595
     38       0.146075  -0.005420   0.033481  -0.078995  -0.085634  -0.181076
     39      -0.198594  -0.005600  -0.011775   0.130551  -0.037281  -0.293436
     40      -0.333689   0.002953   0.024825   0.211651  -0.093871  -0.227079
     41       0.060691  -0.002463  -0.020194  -0.024365   0.061869   0.136327
                 30         31         32         33         34         35    
      0      -0.039394  -0.000056  -0.001817  -0.009322  -0.042372  -0.024047
      1       0.054722   0.000055   0.002148   0.009016   0.087589  -0.133403
      2       0.009752   0.000137   0.000391   0.001729   0.014667  -0.018653
      3       0.070748   0.000138   0.005585   0.023356   0.057259   0.047803
      4      -0.002305   0.000087   0.000826  -0.006049  -0.789465  -0.057126
      5      -0.003355  -0.000468  -0.000145  -0.001941  -0.117412  -0.010445
      6       0.009401   0.000012   0.000435   0.001538  -0.004845   0.007277
      7      -0.009583  -0.000008  -0.000387  -0.001382  -0.040993   0.746893
      8      -0.001826  -0.000001  -0.000077  -0.000271  -0.005902   0.110414
      9      -0.026032  -0.000210  -0.008160  -0.014393   0.020207  -0.014770
     10       0.018981   0.000342   0.005163   0.008472   0.060905  -0.003034
     11       0.004048  -0.001868   0.001139   0.001880   0.007929   0.000179
     12      -0.005696  -0.000029  -0.001344  -0.003416  -0.026292  -0.006741
     13      -0.009881  -0.000018  -0.000963   0.003454   0.492604   0.030417
     14      -0.001187  -0.000045  -0.000063   0.000678   0.072814   0.004725
     15      -0.099353   0.001183   0.020263  -0.029784   0.023078   0.004967
     16      -0.056266  -0.003032   0.032356   0.067848  -0.022461  -0.002611
     17      -0.005001   0.021579   0.004098   0.011959  -0.003991  -0.000543
     18      -0.002072  -0.000003  -0.000110  -0.000371   0.000097  -0.006587
     19      -0.014810  -0.000019  -0.000470  -0.002100   0.035847  -0.599783
     20      -0.002107  -0.000017  -0.000062  -0.000285   0.005354  -0.088720
     21       0.034004   0.000018   0.000147  -0.000926   0.082527   0.028298
     22      -0.090701  -0.000113  -0.001850  -0.008823  -0.201551  -0.185580
     23      -0.014907   0.000360  -0.000292  -0.001267  -0.033132  -0.028715
     24       0.382849   0.006650   0.019158   0.199708  -0.130174  -0.013971
     25       0.093910   0.035664  -0.316646  -0.499467   0.001788   0.001513
     26      -0.067249   0.005300   0.166242   0.285141  -0.044411  -0.005838
     27       0.385654  -0.007312   0.005686   0.175724  -0.126439  -0.013116
     28       0.070761  -0.040882  -0.248143  -0.384921  -0.014925  -0.000462
     29       0.065630  -0.010932  -0.256823  -0.439325   0.051495   0.006860
     30       0.118293   0.001581   0.018462  -0.009776  -0.010358  -0.000548
     31       0.069957  -0.008692  -0.042821   0.021105   0.011424   0.000975
     32       0.006927   0.048468  -0.008079   0.003824   0.002039   0.000177
     33      -0.139103  -0.024289  -0.099997   0.061448  -0.037507  -0.003208
     34      -0.447134   0.107672  -0.260386   0.161917  -0.052558  -0.008266
     35      -0.067372  -0.700920  -0.026733   0.021480  -0.006650  -0.001124
     36      -0.431247   0.487393  -0.138776   0.062171   0.022775  -0.001107
     37      -0.098250  -0.032514   0.377567  -0.221605   0.023334   0.002259
     38      -0.074599  -0.064501   0.415237  -0.238989   0.009671  -0.002263
     39      -0.429698  -0.492725  -0.146211   0.072494   0.022429  -0.000794
     40      -0.121775   0.063411   0.483955  -0.283310   0.024941   0.001485
     41       0.068560  -0.029399  -0.268271   0.154559  -0.003370   0.002865
                 36         37         38         39         40         41    
      0       0.000076  -0.000276  -0.000009  -0.000006   0.000007  -0.076989
      1      -0.000076  -0.000054   0.000016  -0.000004  -0.000010  -0.038842
      2      -0.000014   0.000006  -0.000148   0.000003   0.000102  -0.002395
      3      -0.000212   0.001324   0.000010  -0.000385  -0.000003   0.001982
      4      -0.000166   0.002500   0.000010  -0.000391   0.000009  -0.001747
      5      -0.000012   0.000314   0.000193  -0.000045  -0.000172  -0.000338
      6       0.000008   0.000056  -0.000001  -0.000014   0.000001   0.000683
      7       0.000241  -0.000208   0.000009  -0.000044  -0.000008  -0.000708
      8       0.000035  -0.000034  -0.000035  -0.000005   0.000028  -0.000134
      9       0.000075  -0.002744  -0.000014  -0.000185  -0.000003   0.000546
     10       0.000100   0.000017  -0.000045   0.000207   0.000059   0.000137
     11       0.000009   0.000096   0.000320   0.000028  -0.000417  -0.000004
     12       0.000051   0.000191   0.000024   0.000006  -0.000014  -0.000103
     13       0.000030  -0.001047  -0.000037   0.000224   0.000019   0.000252
     14       0.000003  -0.000163   0.000150   0.000028  -0.000089   0.000041
     15      -0.001233  -0.003172  -0.002886   0.001556   0.001825  -0.000026
     16      -0.000836   0.065228   0.013428  -0.008898  -0.008363   0.000012
     17       0.000014   0.011735  -0.079863   0.000313   0.051237   0.000006
     18      -0.000004  -0.000008   0.000001   0.000006  -0.000000  -0.000509
     19      -0.000171   0.000087  -0.000006   0.000040   0.000005   0.002187
     20      -0.000026   0.000014   0.000022   0.000005  -0.000016   0.000347
     21       0.000249  -0.000867   0.000016   0.000427  -0.000024   0.884801
     22      -0.000144   0.000558   0.000016   0.000145  -0.000022   0.456978
     23      -0.000032   0.000123   0.000013   0.000002   0.000031   0.029023
     24       0.001691   0.015129  -0.009343  -0.001086   0.002427  -0.000041
     25      -0.000499  -0.301762   0.266624   0.030038  -0.168933  -0.000121
     26      -0.002904  -0.642826   0.522104   0.060700  -0.332150  -0.000213
     27       0.001724   0.054853   0.043668  -0.006720  -0.023887  -0.000032
     28      -0.000309  -0.472857  -0.425894   0.065470   0.266863  -0.000149
     29       0.001437   0.502418   0.423405  -0.066225  -0.266147   0.000138
     30       0.036207   0.006616   0.002623   0.064285   0.001691  -0.000036
     31       0.034097  -0.008501  -0.008589  -0.064855  -0.011207   0.000027
     32       0.003846  -0.001761   0.049243  -0.011781   0.078244   0.000006
     33      -0.521297  -0.077082  -0.011066  -0.727444   0.010400   0.000315
     34       0.249683   0.040938   0.003637   0.333843  -0.006736  -0.000180
     35       0.056550   0.008957   0.011827   0.076844   0.012501  -0.000039
     36       0.065906  -0.003982  -0.043962  -0.032453  -0.062376   0.000007
     37      -0.397203   0.028264   0.267026   0.278748   0.414588  -0.000047
     38       0.413312  -0.033970  -0.268003  -0.300894  -0.411783   0.000068
     39       0.034568  -0.001718   0.023624  -0.009660   0.031776   0.000002
     40      -0.248000   0.017810  -0.168120   0.168491  -0.273763  -0.000034
     41      -0.514356   0.043969  -0.332318   0.365829  -0.536617  -0.000091


-----------
IR SPECTRUM
-----------

 Mode   freq       eps      Int      T**2         TX        TY        TZ
       cm**-1   L/(mol*cm) km/mol    a.u.
----------------------------------------------------------------------------
  6:     55.08   0.000002    0.01  0.000010  (-0.000117  0.000301 -0.003184)
  7:    101.26   0.000038    0.19  0.000118  (-0.004686  0.007695  0.006045)
  8:    102.33   0.000137    0.69  0.000417  (-0.010524  0.017469  0.001010)
  9:    156.44   0.002080   10.51  0.004149  ( 0.002757 -0.009354  0.063672)
 10:    224.87   0.002005   10.13  0.002782  ( 0.050464  0.015347 -0.000055)
 11:    263.74   0.000360    1.82  0.000426  ( 0.000028 -0.003230  0.020377)
 12:    358.33   0.002730   13.80  0.002378  (-0.048227  0.006739  0.002579)
 13:    413.65   0.000556    2.81  0.000420  (-0.000780 -0.020212 -0.003217)
 14:    502.79   0.008642   43.67  0.005363  (-0.003101  0.010589 -0.072400)
 15:    538.47   0.000128    0.65  0.000074  (-0.003616  0.007621  0.001819)
 16:    566.53   0.000132    0.67  0.000073  (-0.000497  0.001414 -0.008393)
 17:    706.43   0.001667    8.42  0.000736  ( 0.027075  0.001610 -0.000796)
 18:    737.36   0.009975   50.41  0.004222  ( 0.002582 -0.009369  0.064244)
 19:    819.21   0.000053    0.27  0.000020  ( 0.000165 -0.000879  0.004398)
 20:    872.11   0.001098    5.55  0.000393  ( 0.005312 -0.018855 -0.003034)
 21:    981.38   0.002801   14.16  0.000891  ( 0.025528  0.015419  0.001162)
 22:   1075.86   0.031849  160.95  0.009238  ( 0.095347 -0.010831 -0.005448)
 23:   1142.98   0.002053   10.37  0.000560  ( 0.015709 -0.017352 -0.003553)
 24:   1189.04   0.001221    6.17  0.000320  ( 0.002205 -0.002867  0.017531)
 25:   1195.11   0.003346   16.91  0.000874  ( 0.028040  0.009349 -0.000298)
 26:   1279.01   0.121089  611.94  0.029545  (-0.167661  0.035789  0.012389)
 27:   1304.93   0.000196    0.99  0.000047  (-0.001790 -0.000644  0.006577)
 28:   1389.32   0.017869   90.30  0.004014  ( 0.047616 -0.040993 -0.008118)
 29:   1423.54   0.016016   80.94  0.003511  (-0.043807  0.039177  0.007556)
 30:   1447.80   0.007001   35.38  0.001509  ( 0.007013 -0.037700 -0.006215)
 31:   1508.32   0.001331    6.73  0.000275  (-0.000735  0.002611 -0.016373)
 32:   1517.85   0.000362    1.83  0.000075  (-0.008302  0.002161  0.000956)
 33:   1542.03   0.001899    9.60  0.000384  ( 0.001609 -0.019328 -0.002862)
 34:   1775.37   0.126696  640.27  0.022270  ( 0.004631 -0.147564 -0.021755)
 35:   2229.15   0.118345  598.07  0.016567  (-0.032617  0.122968  0.019552)
 36:   3058.34   0.003184   16.09  0.000325  ( 0.014054  0.011216  0.001269)
 37:   3074.85   0.004715   23.83  0.000479  (-0.008542  0.019733  0.004019)
 38:   3113.11   0.000852    4.30  0.000085  (-0.000238  0.001259 -0.009151)
 39:   3129.82   0.005809   29.36  0.000579  ( 0.015200 -0.018438 -0.002862)
 40:   3138.06   0.010628   53.71  0.001057  ( 0.000935 -0.004800  0.032140)
 41:   3274.67   0.003060   15.47  0.000292  ( 0.013118  0.010885  0.001049)

* The epsilon (eps) is given for a Dirac delta lineshape.
** The dipole moment derivative (T) already includes vibrational overlap.

The first frequency considered to be a vibration is 6
The total number of vibrations considered is 36


--------------------------
THERMOCHEMISTRY AT 298.15K
--------------------------

Temperature         ... 298.15 K
Pressure            ... 1.00 atm
Total Mass          ... 114.10 AMU

Throughout the following assumptions are being made:
  (1) The electronic state is orbitally nondegenerate
  (2) There are no thermally accessible electronically excited states
  (3) Hindered rotations indicated by low frequency modes are not
      treated as such but are treated as vibrations and this may
      cause some error
  (4) All equations used are the standard statistical mechanics
      equations for an ideal gas
  (5) All vibrations are strictly harmonic

freq.      55.08  E(vib)   ...       0.52 
freq.     101.26  E(vib)   ...       0.46 
freq.     102.33  E(vib)   ...       0.46 
freq.     156.44  E(vib)   ...       0.40 
freq.     224.87  E(vib)   ...       0.33 
freq.     263.74  E(vib)   ...       0.29 
freq.     358.33  E(vib)   ...       0.22 
freq.     413.65  E(vib)   ...       0.19 
freq.     502.79  E(vib)   ...       0.14 
freq.     538.47  E(vib)   ...       0.12 
freq.     566.53  E(vib)   ...       0.11 
freq.     706.43  E(vib)   ...       0.07 
freq.     737.36  E(vib)   ...       0.06 
freq.     819.21  E(vib)   ...       0.05 
freq.     872.11  E(vib)   ...       0.04 
freq.     981.38  E(vib)   ...       0.02 
freq.    1075.86  E(vib)   ...       0.02 
freq.    1142.98  E(vib)   ...       0.01 
freq.    1189.04  E(vib)   ...       0.01 
freq.    1195.11  E(vib)   ...       0.01 
freq.    1279.01  E(vib)   ...       0.01 
freq.    1304.93  E(vib)   ...       0.01 
freq.    1389.32  E(vib)   ...       0.00 
freq.    1423.54  E(vib)   ...       0.00 
freq.    1447.80  E(vib)   ...       0.00 
freq.    1508.32  E(vib)   ...       0.00 
freq.    1517.85  E(vib)   ...       0.00 
freq.    1542.03  E(vib)   ...       0.00 
freq.    1775.37  E(vib)   ...       0.00 
freq.    2229.15  E(vib)   ...       0.00 
freq.    3058.34  E(vib)   ...       0.00 
freq.    3074.85  E(vib)   ...       0.00 
freq.    3113.11  E(vib)   ...       0.00 
freq.    3129.82  E(vib)   ...       0.00 
freq.    3138.06  E(vib)   ...       0.00 
freq.    3274.67  E(vib)   ...       0.00 

------------
INNER ENERGY
------------

The inner energy is: U= E(el) + E(ZPE) + E(vib) + E(rot) + E(trans)
    E(el)   - is the total energy from the electronic structure calculation
              = E(kin-el) + E(nuc-el) + E(el-el) + E(nuc-nuc)
    E(ZPE)  - the the zero temperature vibrational energy from the frequency calculation
    E(vib)  - the the finite temperature correction to E(ZPE) due to population
              of excited vibrational states
    E(rot)  - is the rotational thermal energy
    E(trans)- is the translational thermal energy

Summary of contributions to the inner energy U:
Electronic energy                ...   -415.71688505 Eh
Zero point energy                ...      0.10527221 Eh      66.06 kcal/mol
Thermal vibrational correction   ...      0.00567966 Eh       3.56 kcal/mol
Thermal rotational correction    ...      0.00141627 Eh       0.89 kcal/mol
Thermal translational correction ...      0.00141627 Eh       0.89 kcal/mol
-----------------------------------------------------------------------
Total thermal energy                   -415.60310064 Eh


Summary of corrections to the electronic energy:
(perhaps to be used in another calculation)
Total thermal correction                  0.00851220 Eh       5.34 kcal/mol
Non-thermal (ZPE) correction              0.10527221 Eh      66.06 kcal/mol
-----------------------------------------------------------------------
Total correction                          0.11378441 Eh      71.40 kcal/mol


--------
ENTHALPY
--------

The enthalpy is H = U + kB*T
                kB is Boltzmann's constant
Total free energy                 ...   -415.60310064 Eh 
Thermal Enthalpy correction       ...      0.00094421 Eh       0.59 kcal/mol
-----------------------------------------------------------------------
Total Enthalpy                    ...   -415.60215643 Eh


Note: Only C1 symmetry has been detected, increase convergence thresholds 
      if your molecule has a higher symmetry. Symmetry factor of 1.0 is   
      used for the rotational entropy correction. 
 

Note: Rotational entropy computed according to Herzberg 
Infrared and Raman Spectra, Chapter V,1, Van Nostrand Reinhold, 1945 
Point Group:  C1, Symmetry Number:   1  
Rotational constants in cm-1:     0.102039     0.047321     0.032727 

Vibrational entropy computed according to the QRRHO of S. Grimme
Chem.Eur.J. 2012 18 9955


-------
ENTROPY
-------

The entropy contributions are T*S = T*(S(el)+S(vib)+S(rot)+S(trans))
     S(el)   - electronic entropy
     S(vib)  - vibrational entropy
     S(rot)  - rotational entropy
     S(trans)- translational entropy
The entropies will be listed as multiplied by the temperature to get
units of energy

Electronic entropy                ...      0.00000000 Eh      0.00 kcal/mol
Vibrational entropy               ...      0.01002585 Eh      6.29 kcal/mol
Rotational entropy                ...      0.01364291 Eh      8.56 kcal/mol
Translational entropy             ...      0.01905811 Eh     11.96 kcal/mol
-----------------------------------------------------------------------
Final entropy term                ...      0.04272686 Eh     26.81 kcal/mol

In case the symmetry of your molecule has not been determined correctly
or in case you have a reason to use a different symmetry number we print 
out the resulting rotational entropy values for sn=1,12 :
 --------------------------------------------------------
|  sn= 1 | S(rot)=       0.01364291 Eh      8.56 kcal/mol|
|  sn= 2 | S(rot)=       0.01298845 Eh      8.15 kcal/mol|
|  sn= 3 | S(rot)=       0.01260562 Eh      7.91 kcal/mol|
|  sn= 4 | S(rot)=       0.01233399 Eh      7.74 kcal/mol|
|  sn= 5 | S(rot)=       0.01212331 Eh      7.61 kcal/mol|
|  sn= 6 | S(rot)=       0.01195116 Eh      7.50 kcal/mol|
|  sn= 7 | S(rot)=       0.01180561 Eh      7.41 kcal/mol|
|  sn= 8 | S(rot)=       0.01167954 Eh      7.33 kcal/mol|
|  sn= 9 | S(rot)=       0.01156833 Eh      7.26 kcal/mol|
|  sn=10 | S(rot)=       0.01146885 Eh      7.20 kcal/mol|
|  sn=11 | S(rot)=       0.01137886 Eh      7.14 kcal/mol|
|  sn=12 | S(rot)=       0.01129670 Eh      7.09 kcal/mol|
 --------------------------------------------------------


-------------------
GIBBS FREE ENERGY
-------------------

The Gibbs free energy is G = H - T*S

Total enthalpy                    ...   -415.60215643 Eh 
Total entropy correction          ...     -0.04272686 Eh    -26.81 kcal/mol
-----------------------------------------------------------------------
Final Gibbs free energy         ...   -415.64488329 Eh

For completeness - the Gibbs free energy minus the electronic energy
G-E(el)                           ...      0.07200176 Eh     45.18 kcal/mol


Timings for individual modules:

Sum of individual times         ...      534.207 sec (=   8.903 min)
GTO integral calculation        ...        1.718 sec (=   0.029 min)   0.3 %
SCF iterations                  ...      247.568 sec (=   4.126 min)  46.3 %
SCF Gradient evaluation         ...       65.028 sec (=   1.084 min)  12.2 %
Geometry relaxation             ...        0.783 sec (=   0.013 min)   0.1 %
Analytical frequency calculation...      219.110 sec (=   3.652 min)  41.0 %
                             ****ORCA TERMINATED NORMALLY****
TOTAL RUN TIME: 0 days 0 hours 8 minutes 55 seconds 510 msec
