
                                 *****************
                                 * O   R   C   A *
                                 *****************

                                            #,                                       
                                            ###                                      
                                            ####                                     
                                            #####                                    
                                            ######                                   
                                           ########,                                 
                                     ,,################,,,,,                         
                               ,,#################################,,                 
                          ,,##########################################,,             
                       ,#########################################, ''#####,          
                    ,#############################################,,   '####,        
                  ,##################################################,,,,####,       
                ,###########''''           ''''###############################       
              ,#####''   ,,,,##########,,,,          '''####'''          '####       
            ,##' ,,,,###########################,,,                        '##       
           ' ,,###''''                  '''############,,,                           
         ,,##''                                '''############,,,,        ,,,,,,###''
      ,#''                                            '''#######################'''  
     '                                                          ''''####''''         
             ,#######,   #######,   ,#######,      ##                                
            ,#'     '#,  ##    ##  ,#'     '#,    #''#        ######   ,####,        
            ##       ##  ##   ,#'  ##            #'  '#       #        #'  '#        
            ##       ##  #######   ##           ,######,      #####,   #    #        
            '#,     ,#'  ##    ##  '#,     ,#' ,#      #,         ##   #,  ,#        
             '#######'   ##     ##  '#######'  #'      '#     #####' # '####'        



                  #######################################################
                  #                        -***-                        #
                  #          Department of theory and spectroscopy      #
                  #    Directorship and core code : Frank Neese         #
                  #        Max Planck Institute fuer Kohlenforschung    #
                  #                Kaiser Wilhelm Platz 1               #
                  #                 D-45470 Muelheim/Ruhr               #
                  #                      Germany                        #
                  #                                                     #
                  #                  All rights reserved                #
                  #                        -***-                        #
                  #######################################################


                         Program Version 5.0.3 -  RELEASE  -


 With contributions from (in alphabetic order):
   Daniel Aravena         : Magnetic Suceptibility
   Michael Atanasov       : Ab Initio Ligand Field Theory (pilot matlab implementation)
   Alexander A. Auer      : GIAO ZORA, VPT2 properties, NMR spectrum
   Ute Becker             : Parallelization
   Giovanni Bistoni       : ED, misc. LED, open-shell LED, HFLD
   Martin Brehm           : Molecular dynamics
   Dmytro Bykov           : SCF Hessian
   Vijay G. Chilkuri      : MRCI spin determinant printing, contributions to CSF-ICE
   Dipayan Datta          : RHF DLPNO-CCSD density
   Achintya Kumar Dutta   : EOM-CC, STEOM-CC
   Dmitry Ganyushin       : Spin-Orbit,Spin-Spin,Magnetic field MRCI
   Miquel Garcia          : C-PCM and meta-GGA Hessian, CC/C-PCM, Gaussian charge scheme
   Yang Guo               : DLPNO-NEVPT2, F12-NEVPT2, CIM, IAO-localization
   Andreas Hansen         : Spin unrestricted coupled pair/coupled cluster methods
   Benjamin Helmich-Paris : MC-RPA, TRAH-SCF, COSX integrals
   Lee Huntington         : MR-EOM, pCC
   Robert Izsak           : Overlap fitted RIJCOSX, COSX-SCS-MP3, EOM
   Marcus Kettner         : VPT2
   Christian Kollmar      : KDIIS, OOCD, Brueckner-CCSD(T), CCSD density, CASPT2, CASPT2-K
   Simone Kossmann        : Meta GGA functionals, TD-DFT gradient, OOMP2, MP2 Hessian
   Martin Krupicka        : Initial AUTO-CI
   Lucas Lang             : DCDCAS
   Marvin Lechner         : AUTO-CI (C++ implementation), FIC-MRCC
   Dagmar Lenk            : GEPOL surface, SMD
   Dimitrios Liakos       : Extrapolation schemes; Compound Job, initial MDCI parallelization
   Dimitrios Manganas     : Further ROCIS development; embedding schemes
   Dimitrios Pantazis     : SARC Basis sets
   Anastasios Papadopoulos: AUTO-CI, single reference methods and gradients
   Taras Petrenko         : DFT Hessian,TD-DFT gradient, ASA, ECA, R-Raman, ABS, FL, XAS/XES, NRVS
   Peter Pinski           : DLPNO-MP2, DLPNO-MP2 Gradient
   Christoph Reimann      : Effective Core Potentials
   Marius Retegan         : Local ZFS, SOC
   Christoph Riplinger    : Optimizer, TS searches, QM/MM, DLPNO-CCSD(T), (RO)-DLPNO pert. Triples
   Tobias Risthaus        : Range-separated hybrids, TD-DFT gradient, RPA, STAB
   Michael Roemelt        : Original ROCIS implementation
   Masaaki Saitow         : Open-shell DLPNO-CCSD energy and density
   Barbara Sandhoefer     : DKH picture change effects
   Avijit Sen             : IP-ROCIS
   Kantharuban Sivalingam : CASSCF convergence, NEVPT2, FIC-MRCI
   Bernardo de Souza      : ESD, SOC TD-DFT
   Georgi Stoychev        : AutoAux, RI-MP2 NMR, DLPNO-MP2 response
   Willem Van den Heuvel  : Paramagnetic NMR
   Boris Wezisla          : Elementary symmetry handling
   Frank Wennmohs         : Technical directorship


 We gratefully acknowledge several colleagues who have allowed us to
 interface, adapt or use parts of their codes:
   Stefan Grimme, W. Hujo, H. Kruse, P. Pracht,  : VdW corrections, initial TS optimization,
                  C. Bannwarth, S. Ehlert          DFT functionals, gCP, sTDA/sTD-DF
   Ed Valeev, F. Pavosevic, A. Kumar             : LibInt (2-el integral package), F12 methods
   Garnet Chan, S. Sharma, J. Yang, R. Olivares  : DMRG
   Ulf Ekstrom                                   : XCFun DFT Library
   Mihaly Kallay                                 : mrcc  (arbitrary order and MRCC methods)
   Jiri Pittner, Ondrej Demel                    : Mk-CCSD
   Frank Weinhold                                : gennbo (NPA and NBO analysis)
   Christopher J. Cramer and Donald G. Truhlar   : smd solvation model
   Lars Goerigk                                  : TD-DFT with DH, B97 family of functionals
   V. Asgeirsson, H. Jonsson                     : NEB implementation
   FAccTs GmbH                                   : IRC, NEB, NEB-TS, DLPNO-Multilevel, CI-OPT
                                                   MM, QMMM, 2- and 3-layer-ONIOM, Crystal-QMMM,
                                                   LR-CPCM, SF, NACMEs, symmetry and pop. for TD-DFT,
                                                   nearIR, NL-DFT gradient (VV10), updates on ESD,
                                                   ML-optimized integration grids
   S Lehtola, MJT Oliveira, MAL Marques          : LibXC Library
   Liviu Ungur et al                             : ANISO software


 Your calculation uses the libint2 library for the computation of 2-el integrals
 For citations please refer to: http://libint.valeyev.net

 Your ORCA version has been built with support for libXC version: 5.1.0
 For citations please refer to: https://tddft.org/programs/libxc/

 This ORCA versions uses:
   CBLAS   interface :  Fast vector & matrix operations
   LAPACKE interface :  Fast linear algebra routines
   SCALAPACK package :  Parallel linear algebra routines
   Shared memory     :  Shared parallel matrices


================================================================================

----- Orbital basis set information -----
Your calculation utilizes the basis: 6-31G*
   H-He, Li-Ne : W. J. Hehre, R. Ditchfield and J.A. Pople, J. Chem. Phys. 56, 2257 (1972).
                 Note: He and Ne are unpublished basis sets taken from the Gaussian program.
                 Note: Li and B from J. D. Dill and J. A. Pople, J. Chem. Phys. 62, 2921 (1975).
   Na - Ar     : M. M. Francl, W. J. Pietro, W. J. Hehre, J. S. Binkley, M. S. Gordon, 
                 D. J. DeFrees and J. A. Pople, J. Chem. Phys. 77, 3654 (1982).
   K - Zn      : V. A. Rassolov, J. A. Pople, M. A. Ratner, and T. L. Windus, J. Chem. Phys. 109, 1223 (1998).

----- AuxJ basis set information -----
Your calculation utilizes the auxiliary basis: def2/J
   F. Weigend, Phys. Chem. Chem. Phys. 8, 1057 (2006).

================================================================================
                                        WARNINGS
                       Please study these warnings very carefully!
================================================================================


WARNING: Geometry Optimization
  ===> : Switching off AutoStart
         For restart on a previous wavefunction, please use MOREAD

INFO   : the flag for use of the SHARK integral package has been found!

================================================================================
                                       INPUT FILE
================================================================================
NAME = eda_syn.inp
|  1> #ester_c01_sp
|  2> ! B3LYP tightscf Freq Opt 6-31G* CPCM(CycloHexane)
|  3> %pal
|  4>     nprocs 1
|  5> end
|  6> %MaxCore 1000
|  7> %freq
|  8>     Temp    298.15
|  9> end
| 10> 
| 11> *xyz 0 1
| 12> C     0.917852  -0.637477  -0.212483
| 13> C    -0.307682   0.128522  -0.016164
| 14> N     2.049677   0.016640  -0.238808
| 15> O    -1.373434  -0.692560  -0.012876
| 16> O    -0.375873   1.334518   0.125684
| 17> C    -2.649232  -0.071566   0.170809
| 18> N     3.020133   0.598093  -0.258681
| 19> H     0.960640  -1.719095  -0.339346
| 20> H    -2.698332   0.437846   1.145350
| 21> H    -2.844281   0.663409  -0.624848
| 22> C    -3.674601  -1.192126   0.112821
| 23> H    -3.650137  -1.676924  -0.886065
| 24> H    -4.692047  -0.784480   0.291735
| 25> H    -3.448628  -1.953203   0.889415
| 26> *
| 27> 
| 28> 
| 29> 
| 30>                          ****END OF INPUT****
================================================================================

                       *****************************
                       * Geometry Optimization Run *
                       *****************************

Geometry optimization settings:
Update method            Update   .... BFGS
Choice of coordinates    CoordSys .... Z-matrix Internals
Initial Hessian          InHess   .... Almoef's Model

Convergence Tolerances:
Energy Change            TolE     ....  5.0000e-06 Eh
Max. Gradient            TolMAXG  ....  3.0000e-04 Eh/bohr
RMS Gradient             TolRMSG  ....  1.0000e-04 Eh/bohr
Max. Displacement        TolMAXD  ....  4.0000e-03 bohr
RMS Displacement         TolRMSD  ....  2.0000e-03 bohr
Strict Convergence                ....  False
------------------------------------------------------------------------------
                        ORCA OPTIMIZATION COORDINATE SETUP
------------------------------------------------------------------------------

The optimization will be done in new redundant internal coordinates
Making redundant internal coordinates   ...  (new redundants) done
Evaluating the initial hessian          ...  (Almloef) done
Evaluating the coordinates              ...  done
Calculating the B-matrix                .... done
Calculating the G-matrix                .... done
Diagonalizing the G-matrix              .... done
Small eigenvalue found = 1.734e-02
The first mode is                       ....   16
The number of degrees of freedom        ....   36

    -----------------------------------------------------------------
                    Redundant Internal Coordinates


    -----------------------------------------------------------------
         Definition                    Initial Value    Approx d2E/dq
    -----------------------------------------------------------------
      1. B(C   1,C   0)                  1.4585         0.485789   
      2. B(N   2,C   0)                  1.3075         0.757667   
      3. B(O   3,C   1)                  1.3454         0.659301   
      4. B(O   4,C   1)                  1.2162         1.059562   
      5. B(C   5,O   3)                  1.4307         0.481801   
      6. B(N   6,N   2)                  1.1315         1.295538   
      7. B(H   7,C   0)                  1.0899         0.360268   
      8. B(H   8,C   5)                  1.1007         0.346161   
      9. B(H   9,C   5)                  1.1006         0.346357   
     10. B(C  10,C   5)                  1.5200         0.387554   
     11. B(H  11,C  10)                  1.1106         0.333872   
     12. B(H  12,C  10)                  1.1106         0.333882   
     13. B(H  13,C  10)                  1.1106         0.333872   
     14. A(N   2,C   0,H   7)          117.3973         0.362919   
     15. A(C   1,C   0,H   7)          124.7415         0.338759   
     16. A(C   1,C   0,N   2)          117.8612         0.427880   
     17. A(C   0,C   1,O   4)          125.7035         0.454604   
     18. A(C   0,C   1,O   3)          110.2081         0.417380   
     19. A(O   3,C   1,O   4)          124.0884         0.477547   
     20. L(C   0,N   2,N   6,C   1, 1) 179.0852         0.505119   
     21. L(C   0,N   2,N   6,C   1, 2) 179.9681         0.505119   
     22. A(C   1,O   3,C   5)          116.2184         0.414070   
     23. A(H   8,C   5,C  10)          110.1731         0.324173   
     24. A(O   3,C   5,C  10)          106.0607         0.379628   
     25. A(H   8,C   5,H   9)          108.8501         0.287290   
     26. A(O   3,C   5,H   9)          110.7974         0.334048   
     27. A(H   9,C   5,C  10)          110.1927         0.324203   
     28. A(O   3,C   5,H   8)          110.7509         0.334017   
     29. A(H  12,C  10,H  13)          108.9837         0.284048   
     30. A(H  11,C  10,H  13)          108.9841         0.284047   
     31. A(C   5,C  10,H  13)          109.9542         0.322257   
     32. A(H  11,C  10,H  12)          108.9842         0.284048   
     33. A(C   5,C  10,H  12)          109.9543         0.322258   
     34. A(C   5,C  10,H  11)          109.9539         0.322257   
     35. D(O   4,C   1,C   0,N   2)      0.0862         0.016068   
     36. D(O   4,C   1,C   0,H   7)   -179.9180         0.016068   
     37. D(O   3,C   1,C   0,H   7)      0.0790         0.016068   
     38. D(O   3,C   1,C   0,N   2)   -179.9168         0.016068   
     39. D(C   5,O   3,C   1,O   4)      0.0335         0.032201   
     40. D(C   5,O   3,C   1,C   0)   -179.9636         0.032201   
     41. D(C  10,C   5,O   3,C   1)    179.0641         0.018315   
     42. D(H   9,C   5,O   3,C   1)     59.4881         0.018315   
     43. D(H   8,C   5,O   3,C   1)    -61.4087         0.018315   
     44. D(H  12,C  10,C   5,H   8)     57.7312         0.011948   
     45. D(H  12,C  10,C   5,O   3)    177.6361         0.011948   
     46. D(H  11,C  10,C   5,H   9)     57.6075         0.011948   
     47. D(H  11,C  10,C   5,H   8)    177.7314         0.011948   
     48. D(H  12,C  10,C   5,H   9)    -62.3927         0.011948   
     49. D(H  11,C  10,C   5,O   3)    -62.3637         0.011948   
     50. D(H  13,C  10,C   5,H   9)    177.6075         0.011948   
     51. D(H  13,C  10,C   5,H   8)    -62.2686         0.011948   
     52. D(H  13,C  10,C   5,O   3)     57.6363         0.011948   
    -----------------------------------------------------------------

Number of atoms                         .... 14
Number of degrees of freedom            .... 52

         *************************************************************
         *                GEOMETRY OPTIMIZATION CYCLE   1            *
         *************************************************************
---------------------------------
CARTESIAN COORDINATES (ANGSTROEM)
---------------------------------
  C      0.917852   -0.637477   -0.212483
  C     -0.307682    0.128522   -0.016164
  N      2.049677    0.016640   -0.238808
  O     -1.373434   -0.692560   -0.012876
  O     -0.375873    1.334518    0.125684
  C     -2.649232   -0.071566    0.170809
  N      3.020133    0.598093   -0.258681
  H      0.960640   -1.719095   -0.339346
  H     -2.698332    0.437846    1.145350
  H     -2.844281    0.663409   -0.624848
  C     -3.674601   -1.192126    0.112821
  H     -3.650137   -1.676924   -0.886065
  H     -4.692047   -0.784480    0.291735
  H     -3.448628   -1.953203    0.889415

----------------------------
CARTESIAN COORDINATES (A.U.)
----------------------------
  NO LB      ZA    FRAG     MASS         X           Y           Z
   0 C     6.0000    0    12.011    1.734489   -1.204657   -0.401535
   1 C     6.0000    0    12.011   -0.581435    0.242871   -0.030546
   2 N     7.0000    0    14.007    3.873328    0.031445   -0.451282
   3 O     8.0000    0    15.999   -2.595414   -1.308749   -0.024332
   4 O     8.0000    0    15.999   -0.710297    2.521874    0.237508
   5 C     6.0000    0    12.011   -5.006323   -0.135240    0.322782
   6 N     7.0000    0    14.007    5.707224    1.130232   -0.488836
   7 H     1.0000    0     1.008    1.815347   -3.248619   -0.641271
   8 H     1.0000    0     1.008   -5.099108    0.827409    2.164398
   9 H     1.0000    0     1.008   -5.374912    1.253661   -1.180792
  10 C     6.0000    0    12.011   -6.943990   -2.252792    0.213201
  11 H     1.0000    0     1.008   -6.897759   -3.168927   -1.674420
  12 H     1.0000    0     1.008   -8.866684   -1.482452    0.551299
  13 H     1.0000    0     1.008   -6.516962   -3.691019    1.680751

--------------------------------
INTERNAL COORDINATES (ANGSTROEM)
--------------------------------
 C      0   0   0     0.000000000000     0.00000000     0.00000000
 C      1   0   0     1.458502383583     0.00000000     0.00000000
 N      1   2   0     1.307512862629   117.86118383     0.00000000
 O      2   1   3     1.345367528660   110.20812640   180.08317193
 O      2   1   3     1.216222520594   125.70346651     0.08617130
 C      4   2   1     1.430746051564   116.21843850   180.03639180
 N      3   1   2     1.131489008022   179.08506742     1.11207871
 H      1   2   3     1.089872713502   124.74146828   179.99581802
 H      6   4   2     1.100745909111   110.75090979   298.59129856
 H      6   4   2     1.100591851994   110.79737505    59.48806073
 C      6   4   2     1.519999640758   106.06067293   179.06410442
 H     11   6   4     1.110585804473   109.95389048   297.63631598
 H     11   6   4     1.110577256938   109.95429972   177.63613528
 H     11   6   4     1.110585538126   109.95424140    57.63631535

---------------------------
INTERNAL COORDINATES (A.U.)
---------------------------
 C      0   0   0     0.000000000000     0.00000000     0.00000000
 C      1   0   0     2.756170070644     0.00000000     0.00000000
 N      1   2   0     2.470841226947   117.86118383     0.00000000
 O      2   1   3     2.542376178637   110.20812640   180.08317193
 O      2   1   3     2.298327481831   125.70346651     0.08617130
 C      4   2   1     2.703718204644   116.21843850   180.03639180
 N      3   1   2     2.138204348703   179.08506742     1.11207871
 H      1   2   3     2.059560949353   124.74146828   179.99581802
 H      6   4   2     2.080108311254   110.75090979   298.59129856
 H      6   4   2     2.079817185493   110.79737505    59.48806073
 C      6   4   2     2.872383044692   106.06067293   179.06410442
 H     11   6   4     2.098703018674   109.95389048   297.63631598
 H     11   6   4     2.098686866174   109.95429972   177.63613528
 H     11   6   4     2.098702515351   109.95424140    57.63631535

---------------------
BASIS SET INFORMATION
---------------------
There are 4 groups of distinct atoms

 Group   1 Type C   : 10s4p1d contracted to 3s2p1d pattern {631/31/1}
 Group   2 Type N   : 10s4p1d contracted to 3s2p1d pattern {631/31/1}
 Group   3 Type O   : 10s4p1d contracted to 3s2p1d pattern {631/31/1}
 Group   4 Type H   : 4s contracted to 2s pattern {31}

Atom   0C    basis set group =>   1
Atom   1C    basis set group =>   1
Atom   2N    basis set group =>   2
Atom   3O    basis set group =>   3
Atom   4O    basis set group =>   3
Atom   5C    basis set group =>   1
Atom   6N    basis set group =>   2
Atom   7H    basis set group =>   4
Atom   8H    basis set group =>   4
Atom   9H    basis set group =>   4
Atom  10C    basis set group =>   1
Atom  11H    basis set group =>   4
Atom  12H    basis set group =>   4
Atom  13H    basis set group =>   4
---------------------------------
AUXILIARY/J BASIS SET INFORMATION
---------------------------------
There are 4 groups of distinct atoms

 Group   1 Type C   : 12s5p4d2f1g contracted to 6s4p3d1f1g pattern {711111/2111/211/2/1}
 Group   2 Type N   : 12s5p4d2f1g contracted to 6s4p3d1f1g pattern {711111/2111/211/2/1}
 Group   3 Type O   : 12s5p4d2f1g contracted to 6s4p3d1f1g pattern {711111/2111/211/2/1}
 Group   4 Type H   : 5s2p1d contracted to 3s1p1d pattern {311/2/1}

Atom   0C    basis set group =>   1
Atom   1C    basis set group =>   1
Atom   2N    basis set group =>   2
Atom   3O    basis set group =>   3
Atom   4O    basis set group =>   3
Atom   5C    basis set group =>   1
Atom   6N    basis set group =>   2
Atom   7H    basis set group =>   4
Atom   8H    basis set group =>   4
Atom   9H    basis set group =>   4
Atom  10C    basis set group =>   1
Atom  11H    basis set group =>   4
Atom  12H    basis set group =>   4
Atom  13H    basis set group =>   4
------------------------------------------------------------------------------
                           ORCA GTO INTEGRAL CALCULATION
                           -- RI-GTO INTEGRALS CHOSEN --
------------------------------------------------------------------------------
------------------------------------------------------------------------------
                   ___                                                        
                  /   \      - P O W E R E D   B Y -                         
                 /     \                                                     
                 |  |  |   _    _      __       _____    __    __             
                 |  |  |  | |  | |    /  \     |  _  \  |  |  /  |          
                  \  \/   | |  | |   /    \    | | | |  |  | /  /          
                 / \  \   | |__| |  /  /\  \   | |_| |  |  |/  /          
                |  |  |   |  __  | /  /__\  \  |    /   |      \           
                |  |  |   | |  | | |   __   |  |    \   |  |\   \          
                \     /   | |  | | |  |  |  |  | |\  \  |  | \   \       
                 \___/    |_|  |_| |__|  |__|  |_| \__\ |__|  \__/        
                                                                              
                      - O R C A' S   B I G   F R I E N D -                    
                                      &                                       
                       - I N T E G R A L  F E E D E R -                       
                                                                              
 v1 FN, 2020, v2 2021                                                         
------------------------------------------------------------------------------


Reading SHARK input file eda_syn.SHARKINP.tmp ... ok
----------------------
SHARK INTEGRAL PACKAGE
----------------------

Number of atoms                             ...     14
Number of basis functions                   ...    124
Number of shells                            ...     60
Maximum angular momentum                    ...      2
Integral batch strategy                     ... SHARK/LIBINT Hybrid
RI-J (if used) integral strategy            ... SPLIT-RIJ (Revised 2003 algorithm where possible)
Printlevel                                  ...      1
Contraction scheme used                     ... SEGMENTED contraction
Coulomb Range Separation                    ... NOT USED
Exchange Range Separation                   ... NOT USED
Finite Nucleus Model                        ... NOT USED
Auxiliary Coulomb fitting basis             ... AVAILABLE
   # of basis functions in Aux-J            ...    458
   # of shells in Aux-J                     ...    150
   Maximum angular momentum in Aux-J        ...      4
Auxiliary J/K fitting basis                 ... NOT available
Auxiliary Correlation fitting basis         ... NOT available
Auxiliary 'external' fitting basis          ... NOT available
Integral threshold                          ...     2.500000e-11
Primitive cut-off                           ...     2.500000e-12
Primitive pair pre-selection threshold      ...     2.500000e-12

Calculating pre-screening integrals         ... done (  0.0 sec) Dimension = 60
Organizing shell pair data                  ... done (  0.0 sec)
Shell pair information
Total number of shell pairs                 ...      1830
Shell pairs after pre-screening             ...      1636
Total number of primitive shell pairs       ...     10626
Primitive shell pairs kept                  ...      6189
          la=0 lb=0:    574 shell pairs
          la=1 lb=0:    531 shell pairs
          la=1 lb=1:    132 shell pairs
          la=2 lb=0:    245 shell pairs
          la=2 lb=1:    121 shell pairs
          la=2 lb=2:     33 shell pairs

Calculating one electron integrals          ... done (  0.0 sec)
Calculating RI/J V-Matrix + Cholesky decomp.... done (  0.0 sec)
Calculating Nuclear repulsion               ... done (  0.0 sec) ENN=    348.511702235553 Eh

SHARK setup successfully completed in   0.1 seconds

Maximum memory used throughout the entire GTOINT-calculation: 16.3 MB
-------------------------------------------------------------------------------
                                 ORCA SCF
-------------------------------------------------------------------------------

------------
SCF SETTINGS
------------
Hamiltonian:
 Density Functional     Method          .... DFT(GTOs)
 Exchange Functional    Exchange        .... B88
   X-Alpha parameter    XAlpha          ....  0.666667
   Becke's b parameter  XBeta           ....  0.004200
 Correlation Functional Correlation     .... LYP
 LDA part of GGA corr.  LDAOpt          .... VWN-5
 Gradients option       PostSCFGGA      .... off
 Hybrid DFT is turned on
   Fraction HF Exchange ScalHFX         ....  0.200000
   Scaling of DF-GGA-X  ScalDFX         ....  0.720000
   Scaling of DF-GGA-C  ScalDFC         ....  0.810000
   Scaling of DF-LDA-C  ScalLDAC        ....  1.000000
   Perturbative correction              ....  0.000000
   Density functional embedding theory  .... OFF
   NL short-range parameter             ....  4.800000
 RI-approximation to the Coulomb term is turned on
   Number of AuxJ basis functions       .... 458
   RIJ-COSX (HFX calculated with COS-X)).... on


General Settings:
 Integral files         IntName         .... eda_syn
 Hartree-Fock type      HFTyp           .... RHF
 Total Charge           Charge          ....    0
 Multiplicity           Mult            ....    1
 Number of Electrons    NEL             ....   60
 Basis Dimension        Dim             ....  124
 Nuclear Repulsion      ENuc            ....    348.5117022356 Eh

Convergence Acceleration:
 DIIS                   CNVDIIS         .... on
   Start iteration      DIISMaxIt       ....    12
   Startup error        DIISStart       ....  0.200000
   # of expansion vecs  DIISMaxEq       ....     5
   Bias factor          DIISBfac        ....   1.050
   Max. coefficient     DIISMaxC        ....  10.000
 Trust-Rad. Augm. Hess. CNVTRAH         .... auto
   Auto Start mean grad. ratio tolernc. ....  1.125000
   Auto Start start iteration           ....    20
   Auto Start num. interpolation iter.  ....    10
   Max. Number of Micro iterations      ....    16
   Max. Number of Macro iterations      .... Maxiter - #DIIS iter
   Number of Davidson start vectors     ....     2
   Converg. threshold I  (grad. norm)   ....   1.000e-05
   Converg. threshold II (energy diff.) ....   1.000e-08
   Grad. Scal. Fac. for Micro threshold ....   0.100
   Minimum threshold for Micro iter.    ....   0.010
   NR start threshold (gradient norm)   ....   0.001
   Initial trust radius                 ....   0.400
   Minimum AH scaling param. (alpha)    ....   1.000
   Maximum AH scaling param. (alpha)    .... 1000.000
   Orbital update algorithm             .... Taylor
   White noise on init. David. guess    .... on
   Maximum white noise                  ....   0.010
   Quad. conv. algorithm                .... NR
 SOSCF                  CNVSOSCF        .... on
   Start iteration      SOSCFMaxIt      ....   150
   Startup grad/error   SOSCFStart      ....  0.003300
 Level Shifting         CNVShift        .... on
   Level shift para.    LevelShift      ....    0.2500
   Turn off err/grad.   ShiftErr        ....    0.0010
 Zerner damping         CNVZerner       .... off
 Static damping         CNVDamp         .... on
   Fraction old density DampFac         ....    0.7000
   Max. Damping (<1)    DampMax         ....    0.9800
   Min. Damping (>=0)   DampMin         ....    0.0000
   Turn off err/grad.   DampErr         ....    0.1000
 Fernandez-Rico         CNVRico         .... off

SCF Procedure:
 Maximum # iterations   MaxIter         ....   125
 SCF integral mode      SCFMode         .... Direct
   Integral package                     .... SHARK and LIBINT hybrid scheme
 Reset frequency        DirectResetFreq ....    20
 Integral Threshold     Thresh          ....  2.500e-11 Eh
 Primitive CutOff       TCut            ....  2.500e-12 Eh

Convergence Tolerance:
 Convergence Check Mode ConvCheckMode   .... Total+1el-Energy
 Convergence forced     ConvForced      .... 0
 Energy Change          TolE            ....  1.000e-08 Eh
 1-El. energy change                    ....  1.000e-05 Eh
 Orbital Gradient       TolG            ....  1.000e-05
 Orbital Rotation angle TolX            ....  1.000e-05
 DIIS Error             TolErr          ....  5.000e-07


Diagonalization of the overlap matrix:
Smallest eigenvalue                        ... 2.091e-03
Time for diagonalization                   ...    0.003 sec
Threshold for overlap eigenvalues          ... 1.000e-08
Number of eigenvalues below threshold      ... 0
Time for construction of square roots      ...    0.001 sec
Total time needed                          ...    0.004 sec

Time for model grid setup =    0.120 sec

------------------------------
INITIAL GUESS: MODEL POTENTIAL
------------------------------
Loading Hartree-Fock densities                     ... done
Calculating cut-offs                               ... done
Initializing the effective Hamiltonian             ... done
Setting up the integral package (SHARK)            ... done
Starting the Coulomb interaction                   ... done (   0.1 sec)
Reading the grid                                   ... done
Mapping shells                                     ... done
Starting the XC term evaluation                    ... done (   0.1 sec)
  promolecular density results
     # of electrons  =     59.996552271
     EX              =    -51.842387053
     EC              =     -2.061715537
     EX+EC           =    -53.904102589
Transforming the Hamiltonian                       ... done (   0.0 sec)
Diagonalizing the Hamiltonian                      ... done (   0.0 sec)
Back transforming the eigenvectors                 ... done (   0.0 sec)
Now organizing SCF variables                       ... done
                      ------------------
                      INITIAL GUESS DONE (   0.3 sec)
                      ------------------
-------------------
DFT GRID GENERATION
-------------------

General Integration Accuracy     IntAcc      ... 4.388
Radial Grid Type                 RadialGrid  ... OptM3 with GC (2021)
Angular Grid (max. ang.)         AngularGrid ... 4 (Lebedev-302)
Angular grid pruning method      GridPruning ... 4 (adaptive)
Weight generation scheme         WeightScheme... Becke
Basis function cutoff            BFCut       ... 1.0000e-11
Integration weight cutoff        WCut        ... 1.0000e-14
Angular grids for H and He will be reduced by one unit
Partially contracted basis set               ... off
Rotationally invariant grid construction     ... off

Total number of grid points                  ...    67937
Total number of batches                      ...     1070
Average number of points per batch           ...       63
Average number of grid points per atom       ...     4853
Time for grid setup =    0.474 sec

--------------------
COSX GRID GENERATION
--------------------

GRIDX 1
-------
General Integration Accuracy     IntAcc      ... 3.816
Radial Grid Type                 RadialGrid  ... OptM3 with GC (2021)
Angular Grid (max. ang.)         AngularGrid ... 1 (Lebedev-50)
Angular grid pruning method      GridPruning ... 4 (adaptive)
Weight generation scheme         WeightScheme... Becke
Basis function cutoff            BFCut       ... 1.0000e-11
Integration weight cutoff        WCut        ... 1.0000e-14
Angular grids for H and He will be reduced by one unit
Partially contracted basis set               ... on
Rotationally invariant grid construction     ... off

Total number of grid points                  ...     8662
Total number of batches                      ...      144
Average number of points per batch           ...       60
Average number of grid points per atom       ...      619
UseSFitting                                  ... on

GRIDX 2
-------
General Integration Accuracy     IntAcc      ... 4.020
Radial Grid Type                 RadialGrid  ... OptM3 with GC (2021)
Angular Grid (max. ang.)         AngularGrid ... 2 (Lebedev-110)
Angular grid pruning method      GridPruning ... 4 (adaptive)
Weight generation scheme         WeightScheme... Becke
Basis function cutoff            BFCut       ... 1.0000e-11
Integration weight cutoff        WCut        ... 1.0000e-14
Angular grids for H and He will be reduced by one unit
Partially contracted basis set               ... on
Rotationally invariant grid construction     ... off

Total number of grid points                  ...    19238
Total number of batches                      ...      309
Average number of points per batch           ...       62
Average number of grid points per atom       ...     1374
UseSFitting                                  ... on

GRIDX 3
-------
General Integration Accuracy     IntAcc      ... 4.338
Radial Grid Type                 RadialGrid  ... OptM3 with GC (2021)
Angular Grid (max. ang.)         AngularGrid ... 3 (Lebedev-194)
Angular grid pruning method      GridPruning ... 4 (adaptive)
Weight generation scheme         WeightScheme... Becke
Basis function cutoff            BFCut       ... 1.0000e-11
Integration weight cutoff        WCut        ... 1.0000e-14
Angular grids for H and He will be reduced by one unit
Partially contracted basis set               ... on
Rotationally invariant grid construction     ... off

Total number of grid points                  ...    42422
Total number of batches                      ...      669
Average number of points per batch           ...       63
Average number of grid points per atom       ...     3030
UseSFitting                                  ... on

Time for X-Grid setup             =    0.535 sec


--------------------
CPCM SOLVATION MODEL
--------------------
CPCM parameters:
  Epsilon                                         ...       2.0200
  Refrac                                          ...       1.4250
  Rsolv                                           ...       1.3000
  Surface type                                    ... GAUSSIAN VDW
  Epsilon function type                           ...         CPCM
Radii:
 Radius for C  used is    3.8550 Bohr (=   2.0400 Ang.)
 Radius for N  used is    3.5149 Bohr (=   1.8600 Ang.)
 Radius for O  used is    3.4469 Bohr (=   1.8240 Ang.)
 Radius for H  used is    2.4944 Bohr (=   1.3200 Ang.)
Calculating surface                               ...        done! (  0.0s)
GEPOL surface points                              ...          873
GEPOL Volume                                      ...     951.0829
GEPOL Surface-area                                ...     577.9496
Calculating surface distance matrix               ...        done! (  0.0s)
Performing Cholesky decomposition & store         ...        done! (  0.0s)
Overall time for CPCM initialization              ...                 0.0s
--------------
SCF ITERATIONS
--------------
ITER       Energy         Delta-E        Max-DP      RMS-DP      [F,P]     Damp
               ***  Starting incremental Fock matrix formation  ***
  0   -415.5080010755   0.000000000000 0.10795444  0.00282047  0.2847267 0.7000
  1   -415.6067234917  -0.098722416138 0.06394761  0.00183491  0.1118222 0.7000
                               ***Turning on DIIS***
  2   -415.6425270448  -0.035803553096 0.07110060  0.00280103  0.0338103 0.0000
  3   -415.7027300258  -0.060202981004 0.04250324  0.00124465  0.0602240 0.0000
  4   -415.7144438981  -0.011713872368 0.01086752  0.00042042  0.0150432 0.0000
  5   -415.7153149871  -0.000871088960 0.00414701  0.00012325  0.0043572 0.0000
                      *** Initiating the SOSCF procedure ***
                           *** Shutting down DIIS ***
                      *** Re-Reading the Fockian *** 
                      *** Removing any level shift *** 
ITER      Energy       Delta-E        Grad      Rot      Max-DP    RMS-DP
  6   -415.71538070  -0.0000657126  0.000330  0.000330  0.001264  0.000042
               *** Restarting incremental Fock matrix formation ***
  7   -415.71539093  -0.0000102316  0.000315  0.000747  0.001143  0.000032
  8   -415.71538924   0.0000016941  0.000600  0.000447  0.000745  0.000019
  9   -415.71539244  -0.0000032053  0.000117  0.000428  0.000427  0.000013
 10   -415.71539207   0.0000003682  0.000168  0.000223  0.000252  0.000008
 11   -415.71539262  -0.0000005447  0.000014  0.000048  0.000075  0.000003
 12   -415.71539261   0.0000000109  0.000029  0.000036  0.000053  0.000002
 13   -415.71539263  -0.0000000181  0.000004  0.000009  0.000017  0.000001
 14   -415.71539263   0.0000000007  0.000004  0.000005  0.000010  0.000000
                  ***Gradient check signals convergence***
              ***Rediagonalizing the Fockian in SOSCF/NRSCF***

               *****************************************************
               *                     SUCCESS                       *
               *           SCF CONVERGED AFTER  15 CYCLES          *
               *****************************************************

Old exchange energy                            =    -10.487049866 Eh
New exchange energy                            =    -10.487047447 Eh
Exchange energy change after final integration =      0.000002419 Eh
Total energy after final integration           =   -415.715390208 Eh
Final COS-X integration done in                =     4.476 sec

----------------
TOTAL SCF ENERGY
----------------

Total Energy       :         -415.71539021 Eh          -11312.19087 eV

Components:
Nuclear Repulsion  :          348.51170224 Eh            9483.48555 eV
Electronic Energy  :         -764.22709244 Eh          -20795.67642 eV
One Electron Energy:        -1255.73447685 Eh          -34170.27230 eV
Two Electron Energy:          491.50738441 Eh           13374.59588 eV
Max COSX asymmetry :            0.00000204 Eh               0.00006 eV
CPCM Dielectric    :           -0.00465017 Eh              -0.12654 eV

Virial components:
Potential Energy   :         -828.85637671 Eh          -22554.32865 eV
Kinetic Energy     :          413.14098650 Eh           11242.13778 eV
Virial Ratio       :            2.00623130


DFT components:
N(Alpha)           :       29.999984893463 electrons
N(Beta)            :       29.999984893463 electrons
N(Total)           :       59.999969786926 electrons
E(X)               :      -41.743916720984 Eh       
E(C)               :       -2.431887644020 Eh       
E(XC)              :      -44.175804365004 Eh       
DFET-embed. en.    :        0.000000000000 Eh       
CPCM Solvation Model Properties:
Surface-charge          :           -0.01377472
Charge-correction       :           -0.00002826 Eh              -0.00077 eV
Free-energy (cav+disp)  :  This term is not implemented in the current solvation scheme

---------------
SCF CONVERGENCE
---------------

  Last Energy change         ...   -2.1665e-09  Tolerance :   1.0000e-08
  Last MAX-Density change    ...    2.6645e-15  Tolerance :   1.0000e-07
  Last RMS-Density change    ...    4.9650e-17  Tolerance :   5.0000e-09
  Last Orbital Gradient      ...    2.6407e-07  Tolerance :   1.0000e-05
  Last Orbital Rotation      ...    1.2463e-06  Tolerance :   1.0000e-05

             **** THE GBW FILE WAS UPDATED (eda_syn.gbw) ****
             **** DENSITY eda_syn.scfp WAS UPDATED ****
             **** ENERGY FILE WAS UPDATED (eda_syn.en.tmp) ****
             **** THE GBW FILE WAS UPDATED (eda_syn.gbw) ****
             **** DENSITY eda_syn.scfp WAS UPDATED ****
----------------
ORBITAL ENERGIES
----------------

  NO   OCC          E(Eh)            E(eV) 
   0   2.0000     -19.183493      -522.0094 
   1   2.0000     -19.123913      -520.3881 
   2   2.0000     -14.497420      -394.4949 
   3   2.0000     -14.434581      -392.7849 
   4   2.0000     -10.316741      -280.7328 
   5   2.0000     -10.234001      -278.4813 
   6   2.0000     -10.232427      -278.4385 
   7   2.0000     -10.174549      -276.8636 
   8   2.0000      -1.135405       -30.8959 
   9   2.0000      -1.100762       -29.9533 
  10   2.0000      -1.010461       -27.4960 
  11   2.0000      -0.869798       -23.6684 
  12   2.0000      -0.772249       -21.0140 
  13   2.0000      -0.669842       -18.2273 
  14   2.0000      -0.592017       -16.1096 
  15   2.0000      -0.548962       -14.9380 
  16   2.0000      -0.541586       -14.7373 
  17   2.0000      -0.505339       -13.7510 
  18   2.0000      -0.485672       -13.2158 
  19   2.0000      -0.469285       -12.7699 
  20   2.0000      -0.462293       -12.5796 
  21   2.0000      -0.437095       -11.8940 
  22   2.0000      -0.415623       -11.3097 
  23   2.0000      -0.393715       -10.7135 
  24   2.0000      -0.386764       -10.5244 
  25   2.0000      -0.356591        -9.7033 
  26   2.0000      -0.346373        -9.4253 
  27   2.0000      -0.297134        -8.0854 
  28   2.0000      -0.274678        -7.4744 
  29   2.0000      -0.240044        -6.5319 
  30   0.0000      -0.062985        -1.7139 
  31   0.0000      -0.028449        -0.7741 
  32   0.0000       0.087828         2.3899 
  33   0.0000       0.105105         2.8601 
  34   0.0000       0.134612         3.6630 
  35   0.0000       0.141272         3.8442 
  36   0.0000       0.154290         4.1984 
  37   0.0000       0.157344         4.2815 
  38   0.0000       0.175901         4.7865 
  39   0.0000       0.197265         5.3678 
  40   0.0000       0.226353         6.1594 
  41   0.0000       0.241938         6.5835 
  42   0.0000       0.268296         7.3007 
  43   0.0000       0.322419         8.7735 
  44   0.0000       0.373604        10.1663 
  45   0.0000       0.388365        10.5680 
  46   0.0000       0.510090        13.8802 
  47   0.0000       0.517852        14.0915 
  48   0.0000       0.530102        14.4248 
  49   0.0000       0.535135        14.5618 
  50   0.0000       0.556168        15.1341 
  51   0.0000       0.560083        15.2406 
  52   0.0000       0.584356        15.9011 
  53   0.0000       0.608515        16.5585 
  54   0.0000       0.632813        17.2197 
  55   0.0000       0.658165        17.9096 
  56   0.0000       0.665590        18.1116 
  57   0.0000       0.705825        19.2065 
  58   0.0000       0.717512        19.5245 
  59   0.0000       0.755433        20.5564 
  60   0.0000       0.764883        20.8135 
  61   0.0000       0.788685        21.4612 
  62   0.0000       0.799491        21.7552 
  63   0.0000       0.847413        23.0593 
  64   0.0000       0.850113        23.1327 
  65   0.0000       0.876078        23.8393 
  66   0.0000       0.895560        24.3694 
  67   0.0000       0.902207        24.5503 
  68   0.0000       0.924405        25.1544 
  69   0.0000       0.933515        25.4022 
  70   0.0000       0.959839        26.1186 
  71   0.0000       0.998792        27.1785 
  72   0.0000       1.003868        27.3166 
  73   0.0000       1.011795        27.5323 
  74   0.0000       1.034637        28.1539 
  75   0.0000       1.105560        30.0838 
  76   0.0000       1.138129        30.9701 
  77   0.0000       1.221771        33.2461 
  78   0.0000       1.259927        34.2844 
  79   0.0000       1.299643        35.3651 
  80   0.0000       1.361160        37.0390 
  81   0.0000       1.400778        38.1171 
  82   0.0000       1.411062        38.3969 
  83   0.0000       1.438794        39.1516 
  84   0.0000       1.451948        39.5095 
  85   0.0000       1.465436        39.8765 
  86   0.0000       1.511239        41.1229 
  87   0.0000       1.513818        41.1931 
  88   0.0000       1.588912        43.2365 
  89   0.0000       1.651734        44.9460 
  90   0.0000       1.731684        47.1215 
  91   0.0000       1.764397        48.0117 
  92   0.0000       1.794237        48.8237 
  93   0.0000       1.804944        49.1150 
  94   0.0000       1.854836        50.4727 
  95   0.0000       1.880024        51.1581 
  96   0.0000       1.914575        52.0982 
  97   0.0000       1.954638        53.1884 
  98   0.0000       1.962754        53.4093 
  99   0.0000       1.986856        54.0651 
 100   0.0000       2.002489        54.4905 
 101   0.0000       2.030542        55.2539 
 102   0.0000       2.055156        55.9236 
 103   0.0000       2.078775        56.5663 
 104   0.0000       2.121261        57.7224 
 105   0.0000       2.131346        57.9969 
 106   0.0000       2.146764        58.4164 
 107   0.0000       2.214479        60.2590 
 108   0.0000       2.279490        62.0281 
 109   0.0000       2.332254        63.4639 
 110   0.0000       2.341323        63.7106 
 111   0.0000       2.420236        65.8580 
 112   0.0000       2.467925        67.1557 
 113   0.0000       2.581950        70.2584 
 114   0.0000       2.630277        71.5735 
 115   0.0000       2.657729        72.3205 
 116   0.0000       2.684397        73.0462 
 117   0.0000       2.723648        74.1142 
 118   0.0000       2.864774        77.9545 
 119   0.0000       2.887555        78.5744 
 120   0.0000       2.965541        80.6965 
 121   0.0000       3.122624        84.9709 
 122   0.0000       3.231142        87.9238 
 123   0.0000       3.433986        93.4435 

                    ********************************
                    * MULLIKEN POPULATION ANALYSIS *
                    ********************************

-----------------------
MULLIKEN ATOMIC CHARGES
-----------------------
   0 C :   -0.203338
   1 C :    0.588203
   2 N :    0.190293
   3 O :   -0.462941
   4 O :   -0.485357
   5 C :   -0.024640
   6 N :   -0.157294
   7 H :    0.222204
   8 H :    0.160921
   9 H :    0.161671
  10 C :   -0.462856
  11 H :    0.158724
  12 H :    0.155261
  13 H :    0.159150
Sum of atomic charges:    0.0000000

--------------------------------
MULLIKEN REDUCED ORBITAL CHARGES
--------------------------------
  0 C s       :     3.121746  s :     3.121746
      pz      :     1.288228  p :     3.035920
      px      :     0.781847
      py      :     0.965845
      dz2     :     0.004898  d :     0.045672
      dxz     :     0.006847
      dyz     :     0.003299
      dx2y2   :     0.014608
      dxy     :     0.016021
  1 C s       :     2.934770  s :     2.934770
      pz      :     0.816799  p :     2.347892
      px      :     0.788453
      py      :     0.742639
      dz2     :     0.007657  d :     0.129135
      dxz     :     0.012749
      dyz     :     0.025366
      dx2y2   :     0.028643
      dxy     :     0.054720
  2 N s       :     3.409270  s :     3.409270
      pz      :     1.226778  p :     3.330464
      px      :     0.998726
      py      :     1.104960
      dz2     :     0.003197  d :     0.069974
      dxz     :     0.029678
      dyz     :     0.010307
      dx2y2   :     0.016153
      dxy     :     0.010639
  3 O s       :     3.859520  s :     3.859520
      pz      :     1.756125  p :     4.574675
      px      :     1.205954
      py      :     1.612596
      dz2     :     0.003718  d :     0.028747
      dxz     :     0.004356
      dyz     :     0.003919
      dx2y2   :     0.005311
      dxy     :     0.011442
  4 O s       :     3.853190  s :     3.853190
      pz      :     1.467729  p :     4.604400
      px      :     1.776634
      py      :     1.360037
      dz2     :     0.002686  d :     0.027767
      dxz     :     0.000235
      dyz     :     0.009945
      dx2y2   :     0.007916
      dxy     :     0.006984
  5 C s       :     3.197210  s :     3.197210
      pz      :     1.084620  p :     2.764194
      px      :     0.716857
      py      :     0.962717
      dz2     :     0.010819  d :     0.063236
      dxz     :     0.008451
      dyz     :     0.015001
      dx2y2   :     0.013194
      dxy     :     0.015772
  6 N s       :     3.844145  s :     3.844145
      pz      :     1.259391  p :     3.255108
      px      :     1.082605
      py      :     0.913112
      dz2     :     0.005047  d :     0.058041
      dxz     :     0.013113
      dyz     :     0.004786
      dx2y2   :     0.018985
      dxy     :     0.016110
  7 H s       :     0.777796  s :     0.777796
  8 H s       :     0.839079  s :     0.839079
  9 H s       :     0.838329  s :     0.838329
 10 C s       :     3.309581  s :     3.309581
      pz      :     1.086502  p :     3.119898
      px      :     1.020829
      py      :     1.012567
      dz2     :     0.007409  d :     0.033377
      dxz     :     0.001845
      dyz     :     0.010891
      dx2y2   :     0.005268
      dxy     :     0.007964
 11 H s       :     0.841276  s :     0.841276
 12 H s       :     0.844739  s :     0.844739
 13 H s       :     0.840850  s :     0.840850


                     *******************************
                     * LOEWDIN POPULATION ANALYSIS *
                     *******************************

----------------------
LOEWDIN ATOMIC CHARGES
----------------------
   0 C :   -0.284210
   1 C :    0.127542
   2 N :    0.219083
   3 O :   -0.153363
   4 O :   -0.272793
   5 C :   -0.091770
   6 N :   -0.012924
   7 H :    0.181513
   8 H :    0.127839
   9 H :    0.128390
  10 C :   -0.367810
  11 H :    0.131665
  12 H :    0.134742
  13 H :    0.132095

-------------------------------
LOEWDIN REDUCED ORBITAL CHARGES
-------------------------------
  0 C s       :     2.915006  s :     2.915006
      pz      :     1.265033  p :     3.259393
      px      :     0.935628
      py      :     1.058732
      dz2     :     0.011102  d :     0.109811
      dxz     :     0.013910
      dyz     :     0.005330
      dx2y2   :     0.036208
      dxy     :     0.043262
  1 C s       :     2.824915  s :     2.824915
      pz      :     0.823177  p :     2.742205
      px      :     0.920661
      py      :     0.998367
      dz2     :     0.018668  d :     0.305337
      dxz     :     0.026035
      dyz     :     0.053879
      dx2y2   :     0.069561
      dxy     :     0.137194
  2 N s       :     3.073808  s :     3.073808
      pz      :     1.166870  p :     3.536775
      px      :     1.209619
      py      :     1.160287
      dz2     :     0.009717  d :     0.170333
      dxz     :     0.068245
      dyz     :     0.023968
      dx2y2   :     0.037523
      dxy     :     0.030880
  3 O s       :     3.466139  s :     3.466139
      pz      :     1.732231  p :     4.619446
      px      :     1.254482
      py      :     1.632733
      dz2     :     0.008404  d :     0.067778
      dxz     :     0.010689
      dyz     :     0.005448
      dx2y2   :     0.015258
      dxy     :     0.027979
  4 O s       :     3.554706  s :     3.554706
      pz      :     1.456654  p :     4.662961
      px      :     1.753612
      py      :     1.452695
      dz2     :     0.006908  d :     0.055127
      dxz     :     0.000349
      dyz     :     0.014620
      dx2y2   :     0.020764
      dxy     :     0.012486
  5 C s       :     2.934079  s :     2.934079
      pz      :     1.127060  p :     3.023806
      px      :     0.836940
      py      :     1.059806
      dz2     :     0.021633  d :     0.133885
      dxz     :     0.017547
      dyz     :     0.029105
      dx2y2   :     0.027229
      dxy     :     0.038372
  6 N s       :     3.460518  s :     3.460518
      pz      :     1.253876  p :     3.441176
      px      :     1.213241
      py      :     0.974060
      dz2     :     0.012098  d :     0.111229
      dxz     :     0.022742
      dyz     :     0.008235
      dx2y2   :     0.032839
      dxy     :     0.035316
  7 H s       :     0.818487  s :     0.818487
  8 H s       :     0.872161  s :     0.872161
  9 H s       :     0.871610  s :     0.871610
 10 C s       :     2.985615  s :     2.985615
      pz      :     1.133147  p :     3.316604
      px      :     1.091465
      py      :     1.091991
      dz2     :     0.014025  d :     0.065591
      dxz     :     0.003302
      dyz     :     0.020464
      dx2y2   :     0.010746
      dxy     :     0.017054
 11 H s       :     0.868335  s :     0.868335
 12 H s       :     0.865258  s :     0.865258
 13 H s       :     0.867905  s :     0.867905


                      *****************************
                      * MAYER POPULATION ANALYSIS *
                      *****************************

  NA   - Mulliken gross atomic population
  ZA   - Total nuclear charge
  QA   - Mulliken gross atomic charge
  VA   - Mayer's total valence
  BVA  - Mayer's bonded valence
  FA   - Mayer's free valence

  ATOM       NA         ZA         QA         VA         BVA        FA
  0 C      6.2033     6.0000    -0.2033     3.5736     3.5736     0.0000
  1 C      5.4118     6.0000     0.5882     4.0290     4.0290    -0.0000
  2 N      6.8097     7.0000     0.1903     3.7059     3.7059     0.0000
  3 O      8.4629     8.0000    -0.4629     2.0067     2.0067    -0.0000
  4 O      8.4854     8.0000    -0.4854     2.0591     2.0591     0.0000
  5 C      6.0246     6.0000    -0.0246     3.7805     3.7805    -0.0000
  6 N      7.1573     7.0000    -0.1573     2.7308     2.7308    -0.0000
  7 H      0.7778     1.0000     0.2222     0.9240     0.9240     0.0000
  8 H      0.8391     1.0000     0.1609     0.9292     0.9292    -0.0000
  9 H      0.8383     1.0000     0.1617     0.9294     0.9294     0.0000
 10 C      6.4629     6.0000    -0.4629     3.8488     3.8488    -0.0000
 11 H      0.8413     1.0000     0.1587     0.9351     0.9351    -0.0000
 12 H      0.8447     1.0000     0.1553     0.9351     0.9351    -0.0000
 13 H      0.8409     1.0000     0.1591     0.9355     0.9355    -0.0000

  Mayer bond orders larger than 0.100000
B(  0-C ,  1-C ) :   1.0580 B(  0-C ,  2-N ) :   1.3082 B(  0-C ,  6-N ) :   0.2645 
B(  0-C ,  7-H ) :   0.8858 B(  1-C ,  3-O ) :   1.0271 B(  1-C ,  4-O ) :   1.8477 
B(  2-N ,  6-N ) :   2.3392 B(  3-O ,  5-C ) :   0.8536 B(  5-C ,  8-H ) :   0.9299 
B(  5-C ,  9-H ) :   0.9291 B(  5-C , 10-C ) :   1.0220 B( 10-C , 11-H ) :   0.9477 
B( 10-C , 12-H ) :   0.9435 B( 10-C , 13-H ) :   0.9468 

-------
TIMINGS
-------

Total SCF time: 0 days 0 hours 0 min 42 sec 

Total time                  ....      42.956 sec
Sum of individual times     ....      42.775 sec  ( 99.6%)

Fock matrix formation       ....      41.407 sec  ( 96.4%)
  Split-RI-J                ....       2.422 sec  (  5.8% of F)
  Chain of spheres X        ....      28.410 sec  ( 68.6% of F)
  XC integration            ....       5.887 sec  ( 14.2% of F)
    Basis function eval.    ....       2.388 sec  ( 40.6% of XC)
    Density eval.           ....       1.402 sec  ( 23.8% of XC)
    XC-Functional eval.     ....       0.478 sec  (  8.1% of XC)
    XC-Potential eval.      ....       1.151 sec  ( 19.6% of XC)
Diagonalization             ....       0.019 sec  (  0.0%)
Density matrix formation    ....       0.003 sec  (  0.0%)
Population analysis         ....       0.013 sec  (  0.0%)
Initial guess               ....       0.174 sec  (  0.4%)
Orbital Transformation      ....       0.000 sec  (  0.0%)
Orbital Orthonormalization  ....       0.000 sec  (  0.0%)
DIIS solution               ....       0.009 sec  (  0.0%)
SOSCF solution              ....       0.020 sec  (  0.0%)
Grid generation             ....       1.129 sec  (  2.6%)

Maximum memory used throughout the entire SCF-calculation: 62.7 MB

-------------------------   --------------------
FINAL SINGLE POINT ENERGY      -415.715390208407
-------------------------   --------------------

------------------------------------------------------------------------------
                         ORCA SCF GRADIENT CALCULATION
------------------------------------------------------------------------------

 ... reading COSX grid (gridx3)
Gradient of the Kohn-Sham DFT energy:
Kohn-Sham wavefunction type      ... RKS
Hartree-Fock exchange scaling    ...    0.200
Number of operators              ...    1
Number of atoms                  ...   14
Basis set dimensions             ...  124
Integral neglect threshold       ... 2.5e-11
Integral primitive cutoff        ... 2.5e-12
SHARK Integral package           ... ON

Nuc. rep. gradient       (SHARK) ... done (  0.0 sec)
HCore & Overlap gradient (SHARK) ... done (  0.1 sec)
RI-J gradient            (SHARK) ... done (  0.5 sec)
COSX-gradient                    ... done (  5.5 sec)
Exchange-correlation gradient    ... done

------------------
CARTESIAN GRADIENT
------------------

   1   C   :    0.000540652    0.006394663    0.000690722
   2   C   :   -0.003353487    0.000517490    0.000353333
   3   N   :    0.010778567    0.006449851   -0.000238134
   4   O   :   -0.003644475    0.004503850    0.001009348
   5   O   :   -0.001431370   -0.006953510   -0.000661489
   6   C   :    0.015357814   -0.000675587   -0.001657763
   7   N   :   -0.011101628   -0.006439078    0.000255946
   8   H   :   -0.000066520   -0.006031212   -0.000691450
   9   H   :   -0.004238392   -0.000230094    0.003968466
  10   H   :   -0.004651899    0.000601996   -0.003332982
  11   C   :    0.004839818    0.006032138    0.000733719
  12   H   :    0.001750149   -0.002710438   -0.009378664
  13   H   :   -0.008580172    0.004218362    0.001817063
  14   H   :    0.003724987   -0.005651969    0.007208534

Difference to translation invariance:
           :   -0.0000759557    0.0000264631    0.0000766481

Difference to rotation invariance:
           :   -0.0000948292    0.0005360697    0.0000765734

Norm of the cartesian gradient     ...    0.0339904369
RMS gradient                       ...    0.0052448383
MAX gradient                       ...    0.0153578142

-------
TIMINGS
-------

Total SCF gradient time            ...        9.679 sec

One electron gradient       ....       0.113 sec  (  1.2%)
RI-J Coulomb gradient       ....       0.542 sec  (  5.6%)
COSX gradient               ....       5.491 sec  ( 56.7%)
XC gradient                 ....       2.885 sec  ( 29.8%)
CPCM gradient               ....       0.239 sec  (  2.5%)
   A-Matrix (El+Nuc)        ....       0.042 sec  (  0.4%)
   Potential                ....       0.198 sec  (  2.0%)

Maximum memory used throughout the entire SCFGRAD-calculation: 49.7 MB
------------------------------------------------------------------------------
                         ORCA GEOMETRY RELAXATION STEP
------------------------------------------------------------------------------

Reading the OPT-File                    .... done
Getting information on internals        .... done
Copying old internal coords+grads       .... done
Making the new internal coordinates     .... (new redundants).... done
Validating the new internal coordinates .... (new redundants).... done
Calculating the B-matrix                .... done
Calculating the G,G- and P matrices     .... done
Transforming gradient to internals      .... done
Projecting the internal gradient        .... done
Number of atoms                         ....  14
Number of internal coordinates          ....  52
Current Energy                          ....  -415.715390208 Eh
Current gradient norm                   ....     0.033990437 Eh/bohr
Maximum allowed component of the step   ....  0.300
Current trust radius                    ....  0.300
Evaluating the initial hessian          ....  (Almloef) done
Projecting the Hessian                  .... done
Forming the augmented Hessian           .... done
Diagonalizing the augmented Hessian     .... done
Last element of RFO vector              ....  0.996655169
Lowest eigenvalues of augmented Hessian:
 -0.002017871  0.011957500  0.016067795  0.016067809  0.018315108
Length of the computed step             ....  0.081996198
The final length of the internal step   ....  0.081996198
Converting the step to cartesian space:
 Initial RMS(Int)=    0.0113708268
Transforming coordinates:
 Iter   0:  RMS(Cart)=    0.0224695441 RMS(Int)=    0.0113638199
 Iter   1:  RMS(Cart)=    0.0002480256 RMS(Int)=    0.0001689862
 Iter   2:  RMS(Cart)=    0.0000038625 RMS(Int)=    0.0000036636
 Iter   3:  RMS(Cart)=    0.0000001300 RMS(Int)=    0.0000001234
 Iter   4:  RMS(Cart)=    0.0000000538 RMS(Int)=    0.0000000491
done
Storing new coordinates                 .... done

                                .--------------------.
          ----------------------|Geometry convergence|-------------------------
          Item                value                   Tolerance       Converged
          ---------------------------------------------------------------------
          RMS gradient        0.0039970444            0.0001000000      NO
          MAX gradient        0.0128326195            0.0003000000      NO
          RMS step            0.0113708268            0.0020000000      NO
          MAX step            0.0288671450            0.0040000000      NO
          ........................................................
          Max(Bonds)      0.0153      Max(Angles)    1.11
          Max(Dihed)        1.10      Max(Improp)    0.00
          ---------------------------------------------------------------------

The optimization has not yet converged - more geometry cycles are needed


    ---------------------------------------------------------------------------
                         Redundant Internal Coordinates
                            (Angstroem and degrees)

        Definition                    Value    dE/dq     Step     New-Value
    ----------------------------------------------------------------------------
     1. B(C   1,C   0)                1.4585 -0.000041  0.0000    1.4585   
     2. B(N   2,C   0)                1.3075 -0.000269  0.0002    1.3077   
     3. B(O   3,C   1)                1.3454 -0.007357  0.0059    1.3513   
     4. B(O   4,C   1)                1.2162 -0.006896  0.0034    1.2197   
     5. B(C   5,O   3)                1.4307 -0.006746  0.0074    1.4381   
     6. B(N   6,N   2)                1.1315 -0.012833  0.0052    1.1367   
     7. B(H   7,C   0)                1.0899  0.006068 -0.0089    1.0810   
     8. B(H   8,C   5)                1.1007  0.003588 -0.0055    1.0953   
     9. B(H   9,C   5)                1.1006  0.003641 -0.0055    1.0951   
    10. B(C  10,C   5)                1.5200 -0.002589  0.0035    1.5235   
    11. B(H  11,C  10)                1.1106  0.009667 -0.0152    1.0954   
    12. B(H  12,C  10)                1.1106  0.009696 -0.0153    1.0953   
    13. B(H  13,C  10)                1.1106  0.009664 -0.0152    1.0954   
    14. A(N   2,C   0,H   7)          117.40  0.000458   -0.07    117.33   
    15. A(C   1,C   0,H   7)          124.74 -0.000161    0.03    124.77   
    16. A(C   1,C   0,N   2)          117.86 -0.000298    0.04    117.90   
    17. A(C   0,C   1,O   4)          125.70  0.000989   -0.11    125.59   
    18. A(C   0,C   1,O   3)          110.21  0.002205   -0.29    109.92   
    19. A(O   3,C   1,O   4)          124.09 -0.003194    0.40    124.48   
    20. L(C   0,N   2,N   6,C   1, 1) 179.09 -0.000376    0.04    179.13   
    21. L(C   0,N   2,N   6,C   1, 2) 179.97 -0.000006    0.00    179.97   
    22. A(C   1,O   3,C   5)          116.22 -0.000205    0.03    116.25   
    23. A(H   8,C   5,C  10)          110.17 -0.002368    0.79    110.97   
    24. A(O   3,C   5,C  10)          106.06 -0.006229    1.11    107.17   
    25. A(H   8,C   5,H   9)          108.85  0.001581   -0.63    108.22   
    26. A(O   3,C   5,H   9)          110.80  0.004600   -1.01    109.78   
    27. A(H   9,C   5,C  10)          110.19 -0.002296    0.76    110.96   
    28. A(O   3,C   5,H   8)          110.75  0.004513   -0.97    109.78   
    29. A(H  12,C  10,H  13)          108.98  0.001467   -0.34    108.65   
    30. A(H  11,C  10,H  13)          108.98  0.002262   -0.33    108.66   
    31. A(C   5,C  10,H  13)          109.95 -0.002390    0.46    110.41   
    32. A(H  11,C  10,H  12)          108.98  0.001576   -0.33    108.65   
    33. A(C   5,C  10,H  12)          109.95 -0.000024   -0.02    109.93   
    34. A(C   5,C  10,H  11)          109.95 -0.002798    0.54    110.50   
    35. D(O   4,C   1,C   0,N   2)      0.09  0.000008   -0.02      0.06   
    36. D(O   4,C   1,C   0,H   7)   -179.92  0.000009   -0.03   -179.95   
    37. D(O   3,C   1,C   0,H   7)      0.08  0.000008   -0.03      0.05   
    38. D(O   3,C   1,C   0,N   2)   -179.92  0.000007   -0.02   -179.94   
    39. D(C   5,O   3,C   1,O   4)      0.03 -0.000001    0.00      0.04   
    40. D(C   5,O   3,C   1,C   0)   -179.96 -0.000000    0.00   -179.96   
    41. D(C  10,C   5,O   3,C   1)    179.06  0.000033    0.01    179.07   
    42. D(H   9,C   5,O   3,C   1)     59.49  0.004015   -1.02     58.46   
    43. D(H   8,C   5,O   3,C   1)    -61.41 -0.004076    1.10    -60.31   
    44. D(H  12,C  10,C   5,H   8)     57.73 -0.000567    0.58     58.31   
    45. D(H  12,C  10,C   5,O   3)    177.64 -0.000128    0.51    178.15   
    46. D(H  11,C  10,C   5,H   9)     57.61  0.000620    0.29     57.89   
    47. D(H  11,C  10,C   5,H   8)    177.73 -0.000394    0.50    178.23   
    48. D(H  12,C  10,C   5,H   9)    -62.39  0.000447    0.37    -62.02   
    49. D(H  11,C  10,C   5,O   3)    -62.36  0.000044    0.43    -61.94   
    50. D(H  13,C  10,C   5,H   9)    177.61  0.000152    0.51    178.12   
    51. D(H  13,C  10,C   5,H   8)    -62.27 -0.000862    0.72    -61.55   
    52. D(H  13,C  10,C   5,O   3)     57.64 -0.000423    0.65     58.29   
    ----------------------------------------------------------------------------

         *************************************************************
         *                GEOMETRY OPTIMIZATION CYCLE   2            *
         *************************************************************
---------------------------------
CARTESIAN COORDINATES (ANGSTROEM)
---------------------------------
  C      0.926193   -0.632311   -0.213970
  C     -0.300616    0.131289   -0.015950
  N      2.057518    0.023068   -0.239731
  O     -1.365576   -0.700425   -0.015104
  O     -0.368656    1.340446    0.128547
  C     -2.652425   -0.085777    0.170446
  N      3.032298    0.607498   -0.259302
  H      0.970972   -1.704829   -0.341567
  H     -2.681071    0.429234    1.136680
  H     -2.826224    0.654835   -0.617239
  C     -3.693757   -1.196402    0.113516
  H     -3.679776   -1.685366   -0.866548
  H     -4.692753   -0.780656    0.283364
  H     -3.492072   -1.949007    0.883400

----------------------------
CARTESIAN COORDINATES (A.U.)
----------------------------
  NO LB      ZA    FRAG     MASS         X           Y           Z
   0 C     6.0000    0    12.011    1.750251   -1.194895   -0.404345
   1 C     6.0000    0    12.011   -0.568082    0.248101   -0.030142
   2 N     7.0000    0    14.007    3.888145    0.043593   -0.453026
   3 O     8.0000    0    15.999   -2.580565   -1.323612   -0.028542
   4 O     8.0000    0    15.999   -0.696659    2.533077    0.242920
   5 C     6.0000    0    12.011   -5.012357   -0.162095    0.322096
   6 N     7.0000    0    14.007    5.730213    1.148005   -0.490010
   7 H     1.0000    0     1.008    1.834871   -3.221660   -0.645468
   8 H     1.0000    0     1.008   -5.066490    0.811135    2.148015
   9 H     1.0000    0     1.008   -5.340789    1.237459   -1.166412
  10 C     6.0000    0    12.011   -6.980190   -2.260873    0.214514
  11 H     1.0000    0     1.008   -6.953768   -3.184880   -1.637538
  12 H     1.0000    0     1.008   -8.868018   -1.475226    0.535480
  13 H     1.0000    0     1.008   -6.599060   -3.683090    1.669385

--------------------------------
INTERNAL COORDINATES (ANGSTROEM)
--------------------------------
 C      0   0   0     0.000000000000     0.00000000     0.00000000
 C      1   0   0     1.458546650773     0.00000000     0.00000000
 N      1   2   0     1.307700544348   117.90237916     0.00000000
 O      2   1   3     1.351254790265   109.92255054   180.06138019
 O      2   1   3     1.219659921126   125.59375542     0.06265070
 C      4   2   1     1.438124401348   116.24670784   180.03678947
 N      3   1   2     1.136722485477   179.12750678     1.13963848
 H      1   2   3     1.081009076432   124.77043133   179.99047481
 H      6   4   2     1.095292474630   109.76637935   299.67006111
 H      6   4   2     1.095061373435   109.77129908    58.48083364
 C      6   4   2     1.523516682528   107.17075080   179.06977867
 H     11   6   4     1.095356576655   110.49512576   298.06252180
 H     11   6   4     1.095301421798   109.93228843   178.14542957
 H     11   6   4     1.095359674710   110.41154596    58.28762350

---------------------------
INTERNAL COORDINATES (A.U.)
---------------------------
 C      0   0   0     0.000000000000     0.00000000     0.00000000
 C      1   0   0     2.756253723510     0.00000000     0.00000000
 N      1   2   0     2.471195893997   117.90237916     0.00000000
 O      2   1   3     2.553501490750   109.92255054   180.06138019
 O      2   1   3     2.304823227449   125.59375542     0.06265070
 C      4   2   1     2.717661265057   116.24670784   180.03678947
 N      3   1   2     2.148094187821   179.12750678     1.13963848
 H      1   2   3     2.042811102740   124.77043133   179.99047481
 H      6   4   2     2.069802813595   109.76637935   299.67006111
 H      6   4   2     2.069366095628   109.77129908    58.48083364
 C      6   4   2     2.879029290439   107.17075080   179.06977867
 H     11   6   4     2.069923948868   110.49512576   298.06252180
 H     11   6   4     2.069819721293   109.93228843   178.14542957
 H     11   6   4     2.069929803342   110.41154596    58.28762350

------------------------------------------------------------------------------
                   ___                                                        
                  /   \      - P O W E R E D   B Y -                         
                 /     \                                                     
                 |  |  |   _    _      __       _____    __    __             
                 |  |  |  | |  | |    /  \     |  _  \  |  |  /  |          
                  \  \/   | |  | |   /    \    | | | |  |  | /  /          
                 / \  \   | |__| |  /  /\  \   | |_| |  |  |/  /          
                |  |  |   |  __  | /  /__\  \  |    /   |      \           
                |  |  |   | |  | | |   __   |  |    \   |  |\   \          
                \     /   | |  | | |  |  |  |  | |\  \  |  | \   \       
                 \___/    |_|  |_| |__|  |__|  |_| \__\ |__|  \__/        
                                                                              
                      - O R C A' S   B I G   F R I E N D -                    
                                      &                                       
                       - I N T E G R A L  F E E D E R -                       
                                                                              
 v1 FN, 2020, v2 2021                                                         
------------------------------------------------------------------------------


Reading SHARK input file eda_syn.SHARKINP.tmp ... ok
----------------------
SHARK INTEGRAL PACKAGE
----------------------

Number of atoms                             ...     14
Number of basis functions                   ...    124
Number of shells                            ...     60
Maximum angular momentum                    ...      2
Integral batch strategy                     ... SHARK/LIBINT Hybrid
RI-J (if used) integral strategy            ... SPLIT-RIJ (Revised 2003 algorithm where possible)
Printlevel                                  ...      1
Contraction scheme used                     ... SEGMENTED contraction
Coulomb Range Separation                    ... NOT USED
Exchange Range Separation                   ... NOT USED
Finite Nucleus Model                        ... NOT USED
Auxiliary Coulomb fitting basis             ... AVAILABLE
   # of basis functions in Aux-J            ...    458
   # of shells in Aux-J                     ...    150
   Maximum angular momentum in Aux-J        ...      4
Auxiliary J/K fitting basis                 ... NOT available
Auxiliary Correlation fitting basis         ... NOT available
Auxiliary 'external' fitting basis          ... NOT available
Integral threshold                          ...     2.500000e-11
Primitive cut-off                           ...     2.500000e-12
Primitive pair pre-selection threshold      ...     2.500000e-12

Calculating pre-screening integrals         ... done (  0.0 sec) Dimension = 60
Organizing shell pair data                  ... done (  0.0 sec)
Shell pair information
Total number of shell pairs                 ...      1830
Shell pairs after pre-screening             ...      1635
Total number of primitive shell pairs       ...     10626
Primitive shell pairs kept                  ...      6186
          la=0 lb=0:    574 shell pairs
          la=1 lb=0:    530 shell pairs
          la=1 lb=1:    132 shell pairs
          la=2 lb=0:    245 shell pairs
          la=2 lb=1:    121 shell pairs
          la=2 lb=2:     33 shell pairs

Calculating one electron integrals          ... done (  0.0 sec)
Calculating RI/J V-Matrix + Cholesky decomp.... done (  0.0 sec)
Calculating Nuclear repulsion               ... done (  0.0 sec) ENN=    347.731525216509 Eh

SHARK setup successfully completed in   0.1 seconds

Maximum memory used throughout the entire GTOINT-calculation: 16.3 MB

Diagonalization of the overlap matrix:
Smallest eigenvalue                        ... 2.114e-03
Time for diagonalization                   ...    0.002 sec
Threshold for overlap eigenvalues          ... 1.000e-08
Number of eigenvalues below threshold      ... 0
Time for construction of square roots      ...    0.001 sec
Total time needed                          ...    0.003 sec

-------------------
DFT GRID GENERATION
-------------------

General Integration Accuracy     IntAcc      ... 4.388
Radial Grid Type                 RadialGrid  ... OptM3 with GC (2021)
Angular Grid (max. ang.)         AngularGrid ... 4 (Lebedev-302)
Angular grid pruning method      GridPruning ... 4 (adaptive)
Weight generation scheme         WeightScheme... Becke
Basis function cutoff            BFCut       ... 1.0000e-11
Integration weight cutoff        WCut        ... 1.0000e-14
Angular grids for H and He will be reduced by one unit
Partially contracted basis set               ... off
Rotationally invariant grid construction     ... off

Total number of grid points                  ...    67939
Total number of batches                      ...     1069
Average number of points per batch           ...       63
Average number of grid points per atom       ...     4853
Time for grid setup =    0.464 sec

--------------------
COSX GRID GENERATION
--------------------

GRIDX 1
-------
General Integration Accuracy     IntAcc      ... 3.816
Radial Grid Type                 RadialGrid  ... OptM3 with GC (2021)
Angular Grid (max. ang.)         AngularGrid ... 1 (Lebedev-50)
Angular grid pruning method      GridPruning ... 4 (adaptive)
Weight generation scheme         WeightScheme... Becke
Basis function cutoff            BFCut       ... 1.0000e-11
Integration weight cutoff        WCut        ... 1.0000e-14
Angular grids for H and He will be reduced by one unit
Partially contracted basis set               ... on
Rotationally invariant grid construction     ... off

Total number of grid points                  ...     8664
Total number of batches                      ...      144
Average number of points per batch           ...       60
Average number of grid points per atom       ...      619
UseSFitting                                  ... on

GRIDX 2
-------
General Integration Accuracy     IntAcc      ... 4.020
Radial Grid Type                 RadialGrid  ... OptM3 with GC (2021)
Angular Grid (max. ang.)         AngularGrid ... 2 (Lebedev-110)
Angular grid pruning method      GridPruning ... 4 (adaptive)
Weight generation scheme         WeightScheme... Becke
Basis function cutoff            BFCut       ... 1.0000e-11
Integration weight cutoff        WCut        ... 1.0000e-14
Angular grids for H and He will be reduced by one unit
Partially contracted basis set               ... on
Rotationally invariant grid construction     ... off

Total number of grid points                  ...    19240
Total number of batches                      ...      309
Average number of points per batch           ...       62
Average number of grid points per atom       ...     1374
UseSFitting                                  ... on

GRIDX 3
-------
General Integration Accuracy     IntAcc      ... 4.338
Radial Grid Type                 RadialGrid  ... OptM3 with GC (2021)
Angular Grid (max. ang.)         AngularGrid ... 3 (Lebedev-194)
Angular grid pruning method      GridPruning ... 4 (adaptive)
Weight generation scheme         WeightScheme... Becke
Basis function cutoff            BFCut       ... 1.0000e-11
Integration weight cutoff        WCut        ... 1.0000e-14
Angular grids for H and He will be reduced by one unit
Partially contracted basis set               ... on
Rotationally invariant grid construction     ... off

Total number of grid points                  ...    42428
Total number of batches                      ...      669
Average number of points per batch           ...       63
Average number of grid points per atom       ...     3031
UseSFitting                                  ... on

Time for X-Grid setup             =    0.535 sec


--------------------
CPCM SOLVATION MODEL
--------------------
CPCM parameters:
  Epsilon                                         ...       2.0200
  Refrac                                          ...       1.4250
[...]
     10      -0.006014   0.023832  -0.095676  -0.004846   0.029914   0.003834
     11       0.051230  -0.004505   0.023632   0.032145   0.005930  -0.000867
     12       0.001740   0.012372  -0.056847   0.000006   0.002964   0.011689
     13       0.001462   0.011089   0.019428   0.000154   0.009672   0.004777
     14       0.003495  -0.000076   0.007628   0.000421   0.000908  -0.000517
     15      -0.015926  -0.006571   0.140965   0.002570  -0.109849   0.020628
     16       0.024497  -0.003405  -0.042438  -0.002659  -0.048624   0.003265
     17      -0.169058   0.012415  -0.025220   0.021726   0.003180  -0.001367
     18      -0.004254  -0.087721  -0.214266  -0.000317  -0.035566  -0.029775
     19      -0.002079  -0.043119  -0.124089  -0.000270  -0.025908  -0.022470
     20       0.000721   0.002895   0.004942   0.000324   0.000200   0.000075
     21       0.064531   0.952312   0.151368  -0.002015  -0.389288  -0.361839
     22       0.006573   0.145573   0.265599  -0.000197  -0.008373  -0.022188
     23       0.001247  -0.070630   0.017662   0.003443   0.034633   0.030512
     24       0.349993   0.056079  -0.331594   0.643781   0.557796  -0.102293
     25      -0.415812   0.027881  -0.040015   0.092349   0.114172  -0.080785
     26       0.059639  -0.008092   0.000123  -0.036554  -0.083708   0.036463
     27      -0.305974   0.097078  -0.323773  -0.646954   0.566039  -0.106608
     28       0.380670  -0.028560  -0.007685  -0.096295   0.097419  -0.070019
     29       0.220420  -0.025544   0.062538   0.044089   0.016841  -0.039364
     30       0.009932  -0.005244  -0.005859  -0.007104   0.002563   0.085741
     31      -0.016910   0.000675   0.014282   0.011095  -0.047853   0.095123
     32       0.114399  -0.008080   0.009314  -0.082384  -0.007009   0.005768
     33       0.185714  -0.006867   0.062950  -0.124196   0.077040  -0.382843
     34       0.337213  -0.020223  -0.023723  -0.216141   0.139907  -0.236858
     35      -0.076158   0.004089   0.024166   0.034446  -0.094230   0.157782
     36      -0.018710  -0.007647  -0.021993   0.009100   0.128443  -0.199908
     37       0.032744  -0.014929  -0.021597  -0.014155   0.227822  -0.526717
     38      -0.228264   0.015426  -0.012591   0.103482   0.020637  -0.055599
     39      -0.208431   0.022080   0.034830   0.132675   0.095374  -0.409199
     40      -0.309864   0.026544  -0.049204   0.201483   0.112283  -0.195194
     41      -0.129630   0.010719  -0.053442   0.069802   0.114300  -0.148687
                 30         31         32         33         34         35    
      0       0.146721   0.000096  -0.003969  -0.015545   0.042459   0.103587
      1       0.001494  -0.000005   0.000570   0.001828  -0.071705   0.085561
      2      -0.013199  -0.000063   0.000429   0.001637  -0.012229   0.000583
      3      -0.124776  -0.000122   0.006859   0.024654  -0.074285   0.058903
      4      -0.000000  -0.000099   0.000960  -0.005977   0.794754  -0.043274
      5       0.011405   0.000444  -0.000547  -0.003019   0.100212  -0.010444
      6      -0.025900  -0.000021   0.000571   0.002149  -0.045081  -0.649980
      7       0.004934   0.000012  -0.000108  -0.000210  -0.005054  -0.385184
      8       0.002958  -0.000083  -0.000066  -0.000216   0.003490   0.013975
      9       0.030204   0.000298  -0.008610  -0.014113  -0.022462  -0.014552
     10      -0.014220  -0.000349   0.004931   0.007731  -0.061447  -0.001908
     11      -0.004740   0.001883   0.001417   0.002256  -0.005033   0.001078
     12       0.013941   0.000033  -0.001552  -0.003907   0.039741  -0.006728
     13       0.004478   0.000044  -0.000806   0.004271  -0.492827   0.031073
     14      -0.000788   0.000037   0.000072   0.000899  -0.061657   0.004254
     15       0.109492  -0.002132   0.018818  -0.031878  -0.023311   0.005434
     16       0.064788   0.002508   0.034272   0.066514   0.021154  -0.001878
     17      -0.000822  -0.021417   0.002628   0.011827   0.004262  -0.000651
     18      -0.023822  -0.000011   0.000413   0.001687   0.031252   0.520418
     19      -0.018635  -0.000017   0.000357   0.001407   0.013250   0.312139
     20      -0.000019   0.000031  -0.000001   0.000006  -0.001286  -0.010723
     21      -0.320788  -0.000195   0.008435   0.024021   0.188357   0.175517
     22      -0.027901  -0.000041   0.001487   0.005097  -0.073240   0.065849
     23       0.026040   0.000066  -0.000584  -0.001605  -0.025736  -0.008329
     24      -0.407817  -0.005922   0.040402   0.226499   0.136380  -0.015685
     25      -0.139982  -0.034388  -0.320502  -0.479868   0.002682  -0.000008
     26       0.105408  -0.004854   0.177004   0.283165   0.037932  -0.005345
     27      -0.418921   0.005740   0.006155   0.168808   0.128911  -0.014122
     28      -0.114232   0.041864  -0.260142  -0.384129   0.017742  -0.001642
     29      -0.069960   0.010509  -0.259365  -0.433562  -0.057652   0.007557
     30      -0.105443  -0.004525   0.019153  -0.010646   0.010650  -0.000829
     31      -0.058257   0.007403  -0.042078   0.021569  -0.011265   0.000989
     32       0.001355  -0.048742  -0.008119   0.003987  -0.002221   0.000201
     33       0.363846   0.495702  -0.172478   0.093131  -0.020371   0.001468
     34       0.087619  -0.047370   0.469260  -0.286633  -0.026751   0.000166
     35      -0.062250   0.005792  -0.266570   0.160671   0.005420   0.002117
     36       0.093311   0.062176  -0.091998   0.059344   0.037110  -0.001154
     37       0.368897  -0.092255  -0.261112   0.169423   0.055352  -0.006255
     38       0.042131   0.701660  -0.016905   0.017418   0.004312  -0.000729
     39       0.370886  -0.482689  -0.129779   0.059065  -0.022369   0.001059
     40       0.074998   0.020259   0.376866  -0.231161  -0.025681   0.000712
     41       0.020540   0.088531   0.410536  -0.245208  -0.009093  -0.002219
                 36         37         38         39         40         41    
      0       0.000126  -0.000344   0.000011   0.000070  -0.000006  -0.004261
      1       0.000038  -0.000307  -0.000007   0.000023   0.000004   0.085586
      2      -0.000009  -0.000001   0.000138   0.000001  -0.000089   0.010398
      3      -0.000187   0.001277  -0.000022  -0.000404   0.000011   0.002562
      4      -0.000161   0.002504  -0.000045  -0.000402   0.000010  -0.000723
      5       0.000001   0.000183  -0.000177  -0.000015   0.000161  -0.000319
      6      -0.000140   0.000162   0.000008  -0.000069  -0.000006   0.000937
      7      -0.000113   0.000177  -0.000002  -0.000040   0.000003  -0.000169
      8      -0.000001   0.000007   0.000028   0.000002  -0.000026  -0.000106
      9       0.000050  -0.002774   0.000020  -0.000168   0.000014  -0.000133
     10       0.000103  -0.000055   0.000038   0.000206  -0.000052   0.000004
     11       0.000005   0.000217  -0.000327   0.000025   0.000430   0.000013
     12       0.000050   0.000219  -0.000039   0.000003   0.000022   0.000134
     13       0.000027  -0.001030   0.000043   0.000222  -0.000023  -0.000592
     14       0.000000  -0.000145  -0.000147   0.000021   0.000088  -0.000081
     15      -0.001227  -0.004578   0.006774   0.001931  -0.004375  -0.000224
     16      -0.000647   0.065216  -0.011956  -0.009168   0.007402   0.000007
     17       0.000151   0.011256   0.079345   0.001033  -0.051919   0.000019
     18       0.000109  -0.000142  -0.000005   0.000048   0.000003  -0.002245
     19       0.000070  -0.000101   0.000000   0.000028  -0.000000  -0.000734
     20      -0.000002  -0.000001  -0.000015  -0.000002   0.000013   0.000119
     21       0.000072   0.000345   0.000002  -0.000108  -0.000012   0.040513
     22       0.000087   0.001195  -0.000052  -0.000093   0.000057  -0.988266
     23       0.000004   0.000106   0.000068   0.000001  -0.000130  -0.119253
     24       0.001579  -0.003454  -0.004894   0.000521   0.006692   0.000271
     25      -0.001806  -0.318438  -0.274188   0.030288   0.178004  -0.000525
     26      -0.005621  -0.641058  -0.508158   0.058216   0.330961  -0.000832
     27       0.002151   0.090663  -0.075711  -0.012563   0.044709   0.000401
     28      -0.001808  -0.455280   0.416103   0.068657  -0.264713  -0.000760
     29       0.003155   0.504886  -0.431330  -0.072480   0.275306   0.000645
     30       0.035637   0.006809  -0.005611   0.065436  -0.005289   0.000001
     31       0.034944  -0.008682   0.007869  -0.063247   0.009010   0.000014
     32       0.001248  -0.002105  -0.049821  -0.013316  -0.077927   0.000000
     33       0.017342  -0.000220  -0.012903   0.002823  -0.014187  -0.000009
     34      -0.255151   0.020794   0.175720   0.174700   0.283142  -0.000002
     35      -0.507996   0.048059   0.333762   0.362280   0.533330   0.000028
     36      -0.529669  -0.077830   0.013878  -0.729848  -0.016626  -0.000102
     37       0.236231   0.038654  -0.004964   0.311094   0.008475   0.000011
     38       0.078234   0.011940  -0.012925   0.106120  -0.011262   0.000009
     39       0.098069  -0.006941   0.066162  -0.056654   0.094000  -0.000008
     40      -0.386227   0.029418  -0.264547   0.276123  -0.399537  -0.000009
     41       0.415600  -0.036394   0.274599  -0.308336   0.410080  -0.000008


-----------
IR SPECTRUM
-----------

 Mode   freq       eps      Int      T**2         TX        TY        TZ
       cm**-1   L/(mol*cm) km/mol    a.u.
----------------------------------------------------------------------------
  6:     47.87   0.000120    0.61  0.000785  ( 0.002580 -0.003153  0.027717)
  7:     91.59   0.000488    2.46  0.001661  (-0.003926  0.004469 -0.040323)
  8:    113.62   0.000109    0.55  0.000301  (-0.016580 -0.005051  0.000564)
  9:    158.65   0.001201    6.07  0.002363  (-0.004382  0.005424 -0.048106)
 10:    211.45   0.001505    7.61  0.002221  (-0.034959 -0.031609 -0.000148)
 11:    267.88   0.000312    1.58  0.000363  (-0.001174  0.002637 -0.018836)
 12:    350.77   0.002741   13.85  0.002438  ( 0.049139  0.003048 -0.003770)
 13:    413.18   0.000452    2.29  0.000342  (-0.012372 -0.013701 -0.000921)
 14:    481.81   0.000072    0.37  0.000047  (-0.001573 -0.006589 -0.001006)
 15:    496.68   0.009560   48.31  0.006007  ( 0.006862 -0.008880  0.076687)
 16:    565.29   0.000003    0.02  0.000002  ( 0.000110 -0.000127  0.001285)
 17:    739.30   0.008333   42.11  0.003517  (-0.005429  0.007004 -0.058643)
 18:    768.20   0.002242   11.33  0.000911  (-0.011009  0.027740  0.004461)
 19:    819.47   0.000056    0.28  0.000021  ( 0.000267 -0.000439  0.004593)
 20:    894.88   0.000724    3.66  0.000253  (-0.013483  0.008102  0.002263)
 21:    994.38   0.000355    1.79  0.000111  ( 0.008288  0.006533  0.000022)
 22:   1054.71   0.015374   77.70  0.004549  (-0.066777  0.006640  0.006754)
 23:   1144.20   0.001472    7.44  0.000401  ( 0.005783 -0.018913 -0.003205)
 24:   1188.81   0.001512    7.64  0.000397  (-0.011582  0.000882 -0.016188)
 25:   1193.35   0.037210  188.05  0.009731  (-0.097291 -0.013952  0.008396)
 26:   1227.98   0.124301  628.17  0.031588  ( 0.174645  0.030468 -0.012616)
 27:   1304.60   0.000163    0.82  0.000039  ( 0.000196  0.001097 -0.006134)
 28:   1396.77   0.040149  202.89  0.008970  (-0.091582 -0.023479  0.005598)
 29:   1433.89   0.047153  238.29  0.010262  (-0.099415 -0.018243  0.006777)
 30:   1452.18   0.022391  113.15  0.004812  (-0.069013  0.001812  0.006749)
 31:   1508.65   0.001307    6.60  0.000270  ( 0.001521 -0.002307  0.016205)
 32:   1517.77   0.000262    1.32  0.000054  (-0.006511  0.003114  0.001315)
 33:   1541.55   0.001351    6.83  0.000274  ( 0.007514 -0.014536 -0.002399)
 34:   1769.52   0.058750  296.90  0.010361  (-0.037338  0.093593  0.014388)
 35:   2237.93   0.128455  649.16  0.017912  (-0.127298 -0.040750  0.006850)
 36:   3056.11   0.003783   19.12  0.000386  ( 0.014521  0.013235  0.000505)
 37:   3073.35   0.004255   21.50  0.000432  (-0.010081  0.017717  0.004069)
 38:   3111.12   0.000782    3.95  0.000078  ( 0.000594 -0.001041  0.008777)
 39:   3126.90   0.005990   30.27  0.000598  ( 0.015983 -0.018251 -0.003035)
 40:   3135.92   0.010893   55.05  0.001084  (-0.002542  0.004004 -0.032580)
 41:   3267.37   0.002640   13.34  0.000252  (-0.004675 -0.015110 -0.001409)

* The epsilon (eps) is given for a Dirac delta lineshape.
** The dipole moment derivative (T) already includes vibrational overlap.

The first frequency considered to be a vibration is 6
The total number of vibrations considered is 36


--------------------------
THERMOCHEMISTRY AT 298.15K
--------------------------

Temperature         ... 298.15 K
Pressure            ... 1.00 atm
Total Mass          ... 114.10 AMU

Throughout the following assumptions are being made:
  (1) The electronic state is orbitally nondegenerate
  (2) There are no thermally accessible electronically excited states
  (3) Hindered rotations indicated by low frequency modes are not
      treated as such but are treated as vibrations and this may
      cause some error
  (4) All equations used are the standard statistical mechanics
      equations for an ideal gas
  (5) All vibrations are strictly harmonic

freq.      47.87  E(vib)   ...       0.53 
freq.      91.59  E(vib)   ...       0.47 
freq.     113.62  E(vib)   ...       0.44 
freq.     158.65  E(vib)   ...       0.39 
freq.     211.45  E(vib)   ...       0.34 
freq.     267.88  E(vib)   ...       0.29 
freq.     350.77  E(vib)   ...       0.23 
freq.     413.18  E(vib)   ...       0.19 
freq.     481.81  E(vib)   ...       0.15 
freq.     496.68  E(vib)   ...       0.14 
freq.     565.29  E(vib)   ...       0.11 
freq.     739.30  E(vib)   ...       0.06 
freq.     768.20  E(vib)   ...       0.06 
freq.     819.47  E(vib)   ...       0.05 
freq.     894.88  E(vib)   ...       0.03 
freq.     994.38  E(vib)   ...       0.02 
freq.    1054.71  E(vib)   ...       0.02 
freq.    1144.20  E(vib)   ...       0.01 
freq.    1188.81  E(vib)   ...       0.01 
freq.    1193.35  E(vib)   ...       0.01 
freq.    1227.98  E(vib)   ...       0.01 
freq.    1304.60  E(vib)   ...       0.01 
freq.    1396.77  E(vib)   ...       0.00 
freq.    1433.89  E(vib)   ...       0.00 
freq.    1452.18  E(vib)   ...       0.00 
freq.    1508.65  E(vib)   ...       0.00 
freq.    1517.77  E(vib)   ...       0.00 
freq.    1541.55  E(vib)   ...       0.00 
freq.    1769.52  E(vib)   ...       0.00 
freq.    2237.93  E(vib)   ...       0.00 
freq.    3056.11  E(vib)   ...       0.00 
freq.    3073.35  E(vib)   ...       0.00 
freq.    3111.12  E(vib)   ...       0.00 
freq.    3126.90  E(vib)   ...       0.00 
freq.    3135.92  E(vib)   ...       0.00 
freq.    3267.37  E(vib)   ...       0.00 

------------
INNER ENERGY
------------

The inner energy is: U= E(el) + E(ZPE) + E(vib) + E(rot) + E(trans)
    E(el)   - is the total energy from the electronic structure calculation
              = E(kin-el) + E(nuc-el) + E(el-el) + E(nuc-nuc)
    E(ZPE)  - the the zero temperature vibrational energy from the frequency calculation
    E(vib)  - the the finite temperature correction to E(ZPE) due to population
              of excited vibrational states
    E(rot)  - is the rotational thermal energy
    E(trans)- is the translational thermal energy

Summary of contributions to the inner energy U:
Electronic energy                ...   -415.71673308 Eh
Zero point energy                ...      0.10515492 Eh      65.99 kcal/mol
Thermal vibrational correction   ...      0.00573265 Eh       3.60 kcal/mol
Thermal rotational correction    ...      0.00141627 Eh       0.89 kcal/mol
Thermal translational correction ...      0.00141627 Eh       0.89 kcal/mol
-----------------------------------------------------------------------
Total thermal energy                   -415.60301298 Eh


Summary of corrections to the electronic energy:
(perhaps to be used in another calculation)
Total thermal correction                  0.00856519 Eh       5.37 kcal/mol
Non-thermal (ZPE) correction              0.10515492 Eh      65.99 kcal/mol
-----------------------------------------------------------------------
Total correction                          0.11372011 Eh      71.36 kcal/mol


--------
ENTHALPY
--------

The enthalpy is H = U + kB*T
                kB is Boltzmann's constant
Total free energy                 ...   -415.60301298 Eh 
Thermal Enthalpy correction       ...      0.00094421 Eh       0.59 kcal/mol
-----------------------------------------------------------------------
Total Enthalpy                    ...   -415.60206877 Eh


Note: Only C1 symmetry has been detected, increase convergence thresholds 
      if your molecule has a higher symmetry. Symmetry factor of 1.0 is   
      used for the rotational entropy correction. 
 

Note: Rotational entropy computed according to Herzberg 
Infrared and Raman Spectra, Chapter V,1, Van Nostrand Reinhold, 1945 
Point Group:  C1, Symmetry Number:   1  
Rotational constants in cm-1:     0.277848     0.030482     0.027756 

Vibrational entropy computed according to the QRRHO of S. Grimme
Chem.Eur.J. 2012 18 9955


-------
ENTROPY
-------

The entropy contributions are T*S = T*(S(el)+S(vib)+S(rot)+S(trans))
     S(el)   - electronic entropy
     S(vib)  - vibrational entropy
     S(rot)  - rotational entropy
     S(trans)- translational entropy
The entropies will be listed as multiplied by the temperature to get
units of energy

Electronic entropy                ...      0.00000000 Eh      0.00 kcal/mol
Vibrational entropy               ...      0.01014775 Eh      6.37 kcal/mol
Rotational entropy                ...      0.01345540 Eh      8.44 kcal/mol
Translational entropy             ...      0.01905811 Eh     11.96 kcal/mol
-----------------------------------------------------------------------
Final entropy term                ...      0.04266125 Eh     26.77 kcal/mol

In case the symmetry of your molecule has not been determined correctly
or in case you have a reason to use a different symmetry number we print 
out the resulting rotational entropy values for sn=1,12 :
 --------------------------------------------------------
|  sn= 1 | S(rot)=       0.01345540 Eh      8.44 kcal/mol|
|  sn= 2 | S(rot)=       0.01280094 Eh      8.03 kcal/mol|
|  sn= 3 | S(rot)=       0.01241811 Eh      7.79 kcal/mol|
|  sn= 4 | S(rot)=       0.01214649 Eh      7.62 kcal/mol|
|  sn= 5 | S(rot)=       0.01193580 Eh      7.49 kcal/mol|
|  sn= 6 | S(rot)=       0.01176365 Eh      7.38 kcal/mol|
|  sn= 7 | S(rot)=       0.01161811 Eh      7.29 kcal/mol|
|  sn= 8 | S(rot)=       0.01149203 Eh      7.21 kcal/mol|
|  sn= 9 | S(rot)=       0.01138082 Eh      7.14 kcal/mol|
|  sn=10 | S(rot)=       0.01128134 Eh      7.08 kcal/mol|
|  sn=11 | S(rot)=       0.01119135 Eh      7.02 kcal/mol|
|  sn=12 | S(rot)=       0.01110920 Eh      6.97 kcal/mol|
 --------------------------------------------------------


-------------------
GIBBS FREE ENERGY
-------------------

The Gibbs free energy is G = H - T*S

Total enthalpy                    ...   -415.60206877 Eh 
Total entropy correction          ...     -0.04266125 Eh    -26.77 kcal/mol
-----------------------------------------------------------------------
Final Gibbs free energy         ...   -415.64473002 Eh

For completeness - the Gibbs free energy minus the electronic energy
G-E(el)                           ...      0.07200307 Eh     45.18 kcal/mol


Timings for individual modules:

Sum of individual times         ...      463.193 sec (=   7.720 min)
GTO integral calculation        ...        1.286 sec (=   0.021 min)   0.3 %
SCF iterations                  ...      201.310 sec (=   3.355 min)  43.5 %
SCF Gradient evaluation         ...       51.514 sec (=   0.859 min)  11.1 %
Geometry relaxation             ...        0.570 sec (=   0.009 min)   0.1 %
Analytical frequency calculation...      208.513 sec (=   3.475 min)  45.0 %
                             ****ORCA TERMINATED NORMALLY****
TOTAL RUN TIME: 0 days 0 hours 7 minutes 44 seconds 255 msec
